/*--------------------------------*- C++ -*----------------------------------*\
| =========                 |                                                 |
| \\      /  F ield         | OpenFOAM: The Open Source CFD Toolbox           |
|  \\    /   O peration     | Version:  5.x                                   |
|   \\  /    A nd           | Web:      www.OpenFOAM.org                      |
|    \\/     M anipulation  |                                                 |
\*---------------------------------------------------------------------------*/
FoamFile
{
    version     2.0;
    format      ascii;
    class       volScalarField;
    location    "3000";
    object      epsilon;
}
// * * * * * * * * * * * * * * * * * * * * * * * * * * * * * * * * * * * * * //

dimensions      [0 2 -3 0 0 0 0];

internalField   nonuniform List<scalar> 
10996
(
292.955915628
278.168914032
262.212936389
246.953480487
233.399550567
222.001520447
212.848676593
205.914709825
200.99889248
197.920878116
196.378465979
196.309828912
197.44426339
199.194776231
200.844936832
200.531862415
194.507109801
242.064798425
71.5263496519
91.8151330651
98.3533591771
102.270244735
106.343458942
111.42492529
117.582591262
125.091130812
133.433584231
142.74647026
151.932474572
160.647746975
168.498174464
174.855182821
179.179629517
180.588274332
178.868003955
169.716089083
27.5086680959
37.5396077769
43.5645310139
47.5723117384
50.68411277
53.4122568395
56.0271102373
58.6904864583
61.412634978
64.1194628781
66.8574495319
69.5431319363
72.0241242745
74.1166219468
75.6164633283
76.2832872526
75.7827609432
73.6361494299
17.8525773691
21.4700503788
24.5314132735
26.9828724758
28.9726036202
30.6318918422
32.0626433698
33.3274062813
34.4560166538
35.5262964628
36.543617499
37.5061202747
38.4007403974
39.2095930014
39.9137554389
40.5012236168
40.9989431397
41.6045935891
15.4929322269
16.6439332355
17.8964509525
19.079426656
20.1397611271
21.0690997293
21.8733545372
22.5756835451
23.204950791
23.7782891186
24.309722153
24.8148008342
25.3121149148
25.8274866255
26.3969464985
27.074768124
27.9442542671
29.1497492552
14.8806828825
15.1315363314
15.5211188916
15.9699703355
16.4286133688
16.8666273783
17.2760141447
17.6561064938
18.0103071104
18.3453933309
18.6712631484
19.0031157838
19.3632128894
19.7830179634
20.3037711824
20.9769341094
21.8620436378
23.0037104595
14.7288704217
14.6785535697
14.704386733
14.7871774206
14.9074276119
15.0513691149
15.2086855005
15.3741186491
15.5466713821
15.7291883075
15.9285618112
16.1571008353
16.4336821114
16.7842242598
17.2403220512
17.8363491034
18.6034086181
19.5366387886
14.6979354318
14.5699347782
14.4822257042
14.432222683
14.414889796
14.4247066761
14.4568811268
14.5085963344
14.5795620328
14.6723062815
14.7926559881
14.950686998
15.1613205278
15.4439125288
15.820130603
16.3101435564
16.9266942283
17.6481851579
14.6896699856
14.5370329888
14.4076883899
14.3026511626
14.2217123006
14.1640593924
14.1287158691
14.1154257866
14.125366325
14.1616271081
14.2297152146
14.3382006849
14.4989659597
14.7264782318
15.0356259988
15.4379179593
15.9365671613
16.5058080514
14.6873774142
14.526670719
14.3817216497
14.2534478836
14.1426726685
14.0502816364
13.9771733411
13.9246842782
13.895087767
13.8919576357
13.9204996521
13.9878633131
14.1030736871
14.2761624059
14.5162954326
14.828791503
15.2119862486
15.6430472906
14.6868919577
14.5238757712
14.3738504481
14.2372494639
14.1147012021
14.0072324337
13.9161511715
13.8432170219
13.7909311126
13.7627347739
13.7631339903
13.797736056
13.8729835267
13.9953387598
14.1698736199
14.398247049
14.6769381358
14.9883267491
14.686910802
14.5232485972
14.3715268874
14.2319603996
14.1049138847
13.991168776
13.8918660013
13.8085667185
13.7434120941
13.6992126343
13.6794393647
13.6881073657
13.7294501121
13.8072706236
13.9239970329
14.079478419
14.2701329348
14.4835273287
14.6870980241
14.5232459331
14.3707353659
14.2297006846
14.1003540707
13.9832349874
13.8792060767
13.7894640305
13.7156130949
13.6596914181
13.6241043378
13.6114636681
13.6242987872
13.6646067597
13.733286354
13.8295020208
13.9503551228
14.0875918278
14.6873683113
14.5234931252
14.3704634519
14.2283427047
14.097239376
13.9774947969
13.8697059997
13.7747150588
13.693626142
13.627794064
13.578746268
13.5480368124
13.5370334212
13.5466371622
13.5769775636
13.6271076258
13.6949324659
13.775179116
14.6876751412
14.5238632171
14.3704537968
14.2274158015
14.0947607128
13.9726629278
13.8614881703
13.7617775264
13.6742333798
13.5996893529
13.5390405038
13.4931335448
13.462626003
13.447826148
13.4485413922
13.4639433671
13.4926031933
13.5312451689
14.6879616069
14.5242418152
14.3705491265
14.2267433883
14.0927384619
13.9685686288
13.8544103949
13.7505663979
13.6574393717
13.5754963968
13.5052132282
13.4469990278
13.401109858
13.3675618366
13.346061108
13.3359460191
13.3362602547
13.3450248324
14.688152622
14.5244810526
14.3705482184
14.2261084357
14.0909830682
13.9650930894
13.8484699427
13.7412389887
13.6435922339
13.5557542806
13.4779397267
13.4103027761
13.3528855758
13.3055714961
13.2680542672
13.2398119264
13.2201886991
13.2080310233
14.6881793495
14.5244391915
14.3702479689
14.2252790747
14.0892815852
13.9620967805
13.8436566998
13.7339676664
13.6330844269
13.5410819174
13.4580206958
13.3839131402
13.3186898472
13.2621743172
13.2140679191
13.1739377006
13.1412950275
13.1154754364
14.6880603013
14.5241458236
14.3696738744
14.2242662371
14.0876299239
13.9595607792
13.8399325839
13.7286789017
13.6257734399
13.5312026218
13.4449385872
13.3669122255
13.29699299
13.2349710443
13.1805526172
13.1333510841
13.0929640856
13.0590010302
14.6878736103
14.5237411974
14.3689872394
14.2232049727
14.0860874668
13.95741266
13.8370228407
13.7248127702
13.6207109359
13.5246547142
13.4365654269
13.3563298127
13.2837839579
13.2187027697
13.1607966354
13.1097074185
13.0650787579
13.0266775496
14.6876748511
14.5233222589
14.3682982898
14.2221976931
14.0847387024
13.9557084977
13.8349466303
13.7223444937
13.6178237449
13.5213065912
13.4326958437
13.3518611015
13.2786261569
13.2127605421
13.1539788299
13.1019377912
13.0563023374
13.0169129508
14.6875046508
14.5230035083
14.3678555254
14.2217469701
14.0845182577
13.9560393786
13.8362119207
13.7249800344
13.6222971051
13.5280937927
13.4422655172
13.3646632394
13.2950848231
13.2332688588
13.1788987903
13.1316010266
13.0910066259
13.0569032599
14.6874893874
14.5233911021
14.369364343
14.2255114857
14.0920145938
13.9689401787
13.856288828
13.7540122727
13.6619826386
13.5799896245
13.5077574316
13.4449529761
13.3911872119
13.346019261
13.3089650385
13.2794996849
13.2571046367
13.241304199
14.6887187474
14.5292182816
14.3846542898
14.2560268459
14.1436156868
14.0469838349
13.9653710518
13.8978701487
13.8434893665
13.8012247278
13.7701173947
13.7492676188
13.7378295057
13.7350036875
13.7400326112
13.7521861772
13.7707742919
13.7949013929
14.6999443274
14.5722022892
14.4806062329
14.4227804917
14.3941447448
14.3893063956
14.4034094574
14.4325621142
14.4737570988
14.5247361356
14.5838436303
14.6498666324
14.7218966657
14.7992282654
14.8812881794
14.9675749714
15.0576131037
15.1502751982
14.7800226295
14.8232759725
14.9548063974
15.1391900754
15.3518081153
15.5763053141
15.8032363149
16.0278534776
16.2481277565
16.4636007429
16.6746965358
16.8822570269
17.0872544714
17.290632059
17.4932205166
17.6956881045
17.8984881614
18.1006173617
15.2727919327
16.0440730699
16.8821551364
17.6723825158
18.3902074255
19.034422058
19.6141169045
20.1412795787
20.6273550675
21.0824249545
21.5150402689
21.9322084631
22.3395191668
22.7413323524
23.1409675829
23.5408628144
23.942658149
24.3452173919
18.0845012476
21.3420087036
23.7650337795
25.5787958979
27.0184677703
28.2049683615
29.223650306
30.1335313785
30.9750471563
31.7768418575
32.5594327608
33.3373231016
34.1205462987
34.915817788
35.727362754
36.5575132678
37.407119315
38.2722943089
33.484143308
42.5869880012
47.007962668
49.6209864081
51.4791172362
52.9613722782
54.2838600554
55.5627010373
56.8583528862
58.2038411969
59.6163637032
61.1031447232
62.6651674955
64.2995325283
66.0008724808
67.7623337128
69.5758297844
71.427551806
146.748032591
142.288504741
137.681561694
133.117668669
128.756564479
124.687285268
120.953636576
117.569358489
114.530055321
111.821243321
109.423154931
107.313594366
105.469653364
103.868724935
102.489075795
101.310159614
100.312744485
99.4796037993
16.6089921235
11.8074002846
10.3256980467
47.3808580259
53.6867619303
58.2254195194
51.189034105
52.3281552088
57.0463942792
62.2011375468
66.9875003204
71.3375847216
75.2956558524
78.9067500042
82.2086400896
85.2294614883
87.9902119667
90.5074007281
92.7956358588
94.8681739509
96.7380636815
98.4177842656
99.9197262384
101.255757163
102.437521486
103.476130446
104.382342105
105.16636294
105.837935096
106.406262704
106.880036281
107.267572063
107.576206195
107.812736697
107.983729058
108.095397907
108.153452727
108.163178254
108.129465572
108.056870243
107.949597384
107.811569568
107.64639587
107.457431763
107.247740253
107.020175426
106.77733209
106.521638981
106.25528989
105.980334762
105.69861488
105.411844737
105.121558437
104.829189074
104.536012015
104.243209642
103.951837274
103.662858002
103.377126024
103.095410402
102.818393157
102.546684888
102.280818098
102.02125485
101.768379336
101.522501198
101.283846697
101.052550265
100.828644743
100.612037917
100.402501695
100.199622218
100.002787017
99.811089748
99.6233085847
99.4377261111
99.2520835935
99.063240923
98.8670547731
98.6577109939
98.4272633411
98.1858825232
97.9109229403
97.593338528
97.1912227795
96.6773014123
95.9191811103
94.939181737
92.9093226093
26.8513498901
9.69633196473
5.16275153259
14.4294949341
20.5386548548
25.5403296148
31.8687785945
36.670188524
40.5272945182
43.0937202963
45.6187023008
48.2728064394
50.8430107354
53.2041092454
55.3035763964
57.1352668814
58.7141237107
60.0619263331
61.2003026824
62.1490627447
62.9258808898
63.5465825705
64.0254973149
64.3757701479
64.6095852075
64.738321046
64.7725890731
64.7222855485
64.5965478093
64.4038412843
64.1518773027
63.8477975491
63.4979968991
63.1084533231
62.684428156
62.2307823479
61.7519586998
61.251878827
60.7341256189
60.2019500645
59.6582828322
59.1057640153
58.5467722839
57.9834453954
57.4177025719
56.8512620128
56.2856590246
55.722259704
55.1622764194
54.6067793954
54.0567119351
53.5129009813
52.97606863
52.4468438626
51.9257653753
51.4133106712
50.909873869
50.4157811292
49.9313001591
49.4566478786
48.9919962409
48.5374780888
48.0931904003
47.6591997054
47.2355436156
46.8222373364
46.4192722752
46.0266247318
45.6442515136
45.2720998027
44.9100976789
44.5581714515
44.216226025
43.8841774226
43.5619126057
43.2493503029
42.9463639719
42.652899719
42.3688263196
42.0941684317
41.8288053534
41.573003767
41.3266224152
41.0912631941
40.8813699631
40.7009057753
40.5432819857
40.4398363522
40.4133341922
40.5752331784
41.1289845614
43.1979034999
30.9325487428
9.98055463947
5.59147422786
14.244262293
19.5418794047
23.9060641112
28.5131470021
32.7883793335
37.0429119373
41.2582536886
45.2057560816
48.7885440518
51.8647689456
54.6332562058
57.1452209903
59.3993096719
61.3879016495
63.1034075735
64.5465673282
65.7273425818
66.6616867906
67.3686043497
67.8680979552
68.1799148529
68.32289789
68.3147385126
68.1719188424
67.9097557253
67.5424379243
67.0830626084
66.5436544831
65.9351931051
65.2676585274
64.5500696052
63.7905654546
62.996437384
62.1742319832
61.3297950042
60.4683222411
59.5944268204
58.7121074711
57.8249592945
56.9361589067
56.0484971739
55.1644156546
54.2860446507
53.415231669
52.5535729834
51.7024377564
50.862993242
50.0362246023
49.2229549793
48.4238618172
47.6394951118
46.8702897506
46.1165823786
45.3786158386
44.6565612958
43.9505075073
43.2604908007
42.5864958779
41.9284625412
41.2862920417
40.6598527617
40.0489840659
39.4535012213
38.8731983621
38.3078534599
37.757230819
37.2210852295
36.699166069
36.1912185113
35.6969823625
35.2162022475
34.7486223885
34.2940010803
33.8520997648
33.4227062968
33.0056158632
32.6006696973
32.2077277322
31.8267290749
31.4576602524
31.1006490662
30.7559597405
30.4241471897
30.1063362646
29.8085020414
29.5358585954
29.2952140799
29.1015139223
28.9805766765
29.0073686537
29.3158672956
30.379100542
38.3458958051
11.621654749
28.1686914181
23.2102106004
23.6408835647
26.2869433044
30.1020609697
34.0934232341
38.164042219
42.2976552247
46.2373446776
49.9733581882
53.5495681988
56.9405303218
60.0952693822
62.9710989584
65.574075492
67.9025301444
69.9563308361
71.7327882584
73.2270030917
74.4399103065
75.3800165177
76.0617567174
76.5032833057
76.7246134138
76.7462588313
76.5883778752
76.2702981625
75.8102936128
75.2254787848
74.5317729409
73.7438813116
72.8753050974
71.9383612482
70.9442294137
69.9030017943
68.8237539698
67.7146073383
66.5828068064
65.4347948622
64.2762815429
63.1122699305
61.9471768833
60.7848342877
59.6285637452
58.4812370002
57.3453211994
56.2229292487
55.1158545978
54.0256071073
52.9534426105
51.9003922505
50.8672869836
49.8547809979
48.8633714737
47.893418806
46.94516166
46.0187348445
45.1141769193
44.2314513115
43.3704382326
42.5309696686
41.712827142
40.9157498647
40.1394411761
39.383575065
38.6478006408
37.9317476229
37.2350295728
36.5572495965
35.8980015936
35.2568775655
34.6334641127
34.0273529921
33.4381393305
32.8654294846
32.3088364584
31.7679933994
31.2425434303
30.7321634124
30.2365434995
29.7554296251
29.2885904477
28.8358932357
28.3972448095
27.9727416202
27.5625624907
27.1673273245
26.7879166817
26.4276862112
26.090845519
25.7842672246
25.519203852
25.3160318934
25.2237201484
25.3170428732
25.8000784893
46.1532165594
13.6743520641
36.2165926148
29.8592430623
28.8496043465
31.1587239246
34.1960988347
37.6968761833
41.389074086
45.2075230172
48.9917681939
52.6663475714
56.1944321186
59.4764006052
62.5199556974
65.3633263703
68.0181923947
70.4757421152
72.7230143633
74.7538663617
76.5624183701
78.1444885686
79.4957891016
80.611775779
81.4908330816
82.1360224278
82.5551435495
82.7598239513
82.7643285437
82.5844303094
82.2365438059
81.7371111232
81.1022063345
80.3472696707
79.4869545967
78.5350177779
77.5042746005
76.406565348
75.2527697937
74.0528166227
72.8157290715
71.549656855
70.2619357581
68.9591328402
67.6471113842
66.3310545474
65.0155403257
63.7045830305
62.401690745
61.10990598
59.8318503893
58.5697739653
57.3255828631
56.1008771681
54.8969884518
53.7150084985
52.5558164345
51.4201011156
50.3083831382
49.2210341119
48.1582947385
47.1202902447
46.107046189
45.1184977126
44.1545128481
43.2148861968
42.2993540221
41.4076043701
40.5392858772
39.6940150366
38.8713821451
38.0709567554
37.2922917246
36.5349287671
35.7984005005
35.0822372721
34.3859646625
33.7091141535
33.0512222265
32.4118370445
31.7905162921
31.186838118
30.6003955993
30.0308152454
29.4777425798
28.9408806943
28.4199670081
27.9148365199
27.4253811248
26.9516790332
26.4939236844
26.0527190016
25.6289596081
25.2249814347
24.8443769448
24.4925208004
24.1791954699
23.9204346155
23.7494926078
23.7098514235
23.8967998912
53.4735188605
15.6606181309
44.9526240489
37.301195454
35.0396947166
36.6165651347
39.1119570948
42.3054122958
45.7675115216
49.3762598598
52.8974020935
56.2346749009
59.387629113
62.3405948258
65.0937374585
67.6255792631
69.9033408195
71.9368949134
73.7585322128
75.3955476115
76.8643939175
78.1738104628
79.3294582547
80.3348188689
81.191737823
81.9000314213
82.4579159151
82.8635629073
83.1165208328
83.2184316414
83.1731708676
82.986596787
82.6661348235
82.2203275747
81.6584383956
80.9901128488
80.2251209253
79.3731544914
78.4436833362
77.4458452702
76.3883715601
75.2795327106
74.1271045007
72.9383474465
71.7199980311
70.4782708595
69.218867238
67.9469923489
66.6673650381
65.3842417646
64.1014436591
62.8223892194
61.550115077
60.287309018
59.0363225747
57.799213408
56.5777672867
55.3735211068
54.1877850382
53.0216627323
51.8760697949
50.7517522625
49.6493034735
48.5691804779
47.5117176719
46.477141982
45.465581977
44.4770837131
43.5116167135
42.5690837792
41.6493285105
40.7521440303
39.8772804478
39.0244516589
38.1933411208
37.3836070228
36.5948876001
35.826805536
35.0789722355
34.3509932913
33.6424700174
32.953002198
32.2821954737
31.6296620557
30.9950300281
30.3779424712
29.7780715261
29.1951100362
28.6288068438
28.0789533705
27.5454333359
27.0282053628
26.527405032
26.0433202539
25.5765640044
25.1280048111
24.6996890524
24.2946327972
23.9175149431
23.5769897103
23.2858123264
23.0674067681
22.9481200641
22.9740921899
59.3153492212
17.2781367205
53.2734002583
44.7070639842
41.4600786197
42.4293116084
44.4263168852
47.2875793692
50.4666919343
53.8103936337
57.0494163263
60.0531424799
62.8068606045
65.2792356902
67.4848314792
69.4353622147
71.1408965201
72.6123608406
73.8544497223
74.873032447
75.6898787451
76.3363384475
76.8427581434
77.23310093
77.5252419278
77.7326049092
77.8652310764
77.930336197
77.9323063178
77.8730607275
77.7528311013
77.5710282109
77.3268821265
77.0198709621
76.6499638879
76.2177199194
75.7242999665
75.1714231589
74.5612959755
73.8965365737
73.1800965384
72.4151966033
71.6052598114
70.753860123
69.8646640467
68.9413872693
67.9877436714
67.0074101954
66.0039863699
64.9809694306
63.9417254307
62.8894712214
61.8272545034
60.7579479391
59.6842435687
58.6086499192
57.5334925326
56.460907221
55.3928571847
54.3311346814
53.2773652994
52.2330160949
51.1994013793
50.1776910114
49.1689183007
48.1739891743
47.1936907292
46.2286996494
45.279590865
44.3468447724
43.4308550205
42.5319359111
41.6503290046
40.7862096628
39.9396929
39.1108397923
38.2996628869
37.5061316949
36.7301775215
35.9716986828
35.2305653485
34.5066239865
33.7997018629
33.1096114359
32.43615353
31.7791238414
31.1383155621
30.5135280982
29.9045690857
29.3112679857
28.7334713071
28.1710755125
27.6240189913
27.0923243774
26.5760981934
26.075612669
25.5912757669
25.123731446
24.6736779072
24.2434740441
23.8359435575
23.455584446
23.1097834502
22.8088521872
22.569754013
22.408682402
22.3480576247
74.330028899
23.2019857129
70.5700536044
57.7679771459
50.1071432082
46.9701103689
47.8320236661
49.5533575768
52.1188642069
54.9746401594
57.9464280379
60.7669589494
63.2881698805
65.4947903345
67.365055976
68.9256931126
70.2037474044
71.2181756143
71.9898896254
72.5380079066
72.8819982771
73.0422376853
73.0374244291
72.8871596223
72.6150350325
72.2474398765
71.8084391371
71.3182351583
70.7930048833
70.2455194969
69.6858406156
69.1216816316
68.5585562652
67.9999489704
67.4476633343
66.9021962846
66.3630722504
65.8291150728
65.2986691711
64.7697718159
64.2402919907
63.7080360785
63.1708364674
62.6266197337
62.0734673461
61.5096620908
60.933727558
60.3444537033
59.740913339
59.122465994
58.4887532149
57.8396853132
57.175422366
56.4963512073
55.803059054
55.09630584
54.3769951917
53.646148598
52.9048802874
52.1543755659
51.3958662073
50.6306180605
49.8599026966
49.0849854063
48.3071138956
47.5275078465
46.7473494778
45.9677761846
45.1898744676
44.4146755607
43.6431521835
42.8762163791
42.1147182626
41.3594456664
40.6111237139
39.8704162184
39.13792685
38.4142014461
37.699729768
36.9949482454
36.3002425083
35.6159501902
34.9423638654
34.2797346236
33.6282758063
32.9881667886
32.3595556322
31.7425638945
31.1372904952
30.5438184628
29.9622183528
29.392556224
28.8348935403
28.2893067205
27.7558838328
27.2347566876
26.7260791776
26.2300793009
25.7470765322
25.2774475694
24.8217418361
24.3802308471
23.9551123673
23.5484363158
23.1630694479
22.8031944469
22.4752061533
22.1875344903
21.9527527235
21.7807687321
21.6821939202
76.9145423845
98.6395512643
75.0800877367
63.8132854499
57.3886559326
55.1542486217
54.7370272924
55.5402001955
57.4187246895
59.5992087866
61.8881523142
64.0248347987
65.8393619329
67.3036652631
68.4076152738
69.1895600678
69.6878436168
69.9335055448
69.9549432378
69.7808052161
69.4355057086
68.9421820863
68.3221753974
67.5951420872
66.7790235303
65.8906628543
64.9464123975
63.9630374519
62.9570752281
61.9434525523
60.9347762808
59.941242617
58.9709005734
58.0300669202
57.1235807369
56.2549640241
55.4265435339
54.6396137383
53.8945999216
53.191198752
52.528495848
51.9050550321
51.3189989538
50.7680741667
50.2497149395
49.7611022575
49.2992234251
48.8609328256
48.4430107121
48.0422240155
47.6553801068
47.2793807586
46.9112647612
46.5482491213
46.1877571321
45.8274444855
45.4652126971
45.0992205972
44.7278847469
44.3498785307
43.964123501
43.5697803229
43.1662345446
42.7530812035
42.3301075274
41.8972750982
41.4546999011
41.0026339002
40.541446008
40.071604938
39.5936621996
39.1082368488
38.6160008422
38.117666083
37.6139722265
37.1056760841
36.593541755
36.0783322382
35.5608018715
35.0416905724
34.5217187724
34.0015832884
33.4819539219
32.9634713314
32.4467443345
31.9323490235
31.4208285524
30.9126944034
30.408426864
29.9084734121
29.4132525676
28.9231589006
28.4385694465
27.9598475783
27.487343752
27.0213869955
26.5623186227
26.1104984664
25.666332956
25.2301684623
24.8024358848
24.3837160962
23.9741096656
23.5746241676
23.1874935498
22.8142180684
22.4568579879
22.1182644566
21.8023735437
21.5147976605
21.2625035225
21.0550588238
20.898442797
20.7973647562
94.0493483394
126.268150336
100.924144971
82.1563740183
71.3968345659
66.4350619116
64.1383247949
63.2943575533
63.5090065521
64.1374989176
65.1389289879
66.3202522021
67.3950069899
68.1937776891
68.6888436661
68.865337064
68.7553988865
68.4017598604
67.8397289581
67.1010272362
66.2159917245
65.211539786
64.1114853511
62.9376026873
61.7088571628
60.4408786169
59.1471497886
57.8392225011
56.5272357366
55.2204638559
53.9275390325
52.6566596915
51.4153216177
50.2099007866
49.0455072664
47.925994036
46.8541155738
45.8317405679
44.8600316873
43.9395579667
43.0703921092
42.2521968407
41.4843063828
40.7657908722
40.0955010895
39.472097769
38.8940700651
38.3597457529
37.8672986888
37.4147535873
36.9999933613
36.6207669859
36.2747019358
35.959318394
35.6720478987
35.4102538104
35.1712548745
34.9523499055
34.7508436919
34.5640729289
34.3894315025
34.2243946013
34.066540671
33.9135713319
33.7633284584
33.6138087839
33.463175169
33.3097650739
33.1520954966
32.9888656499
32.8189564789
32.6414274577
32.4555108127
32.2606040805
32.0562611364
31.8421820896
31.6182023064
31.3842808076
31.140488255
30.8869949656
30.6240585689
30.3520124796
30.071254198
29.7822348889
29.4854494948
29.1814270534
28.8707225752
28.5539093713
28.2315698916
27.9042902821
27.5726569151
27.2372550659
26.898663157
26.557435705
26.2141169795
25.8692536245
25.5233980639
25.1771067087
24.8309142513
24.4852506315
24.1406723036
23.7977987133
23.4572814167
23.1193222894
22.7844571217
22.453844013
22.1292564
21.8119146379
21.5031360536
21.20459455
20.9184457818
20.6475267702
20.3955529675
20.1674981845
19.9691964938
19.8081539291
19.6879413005
19.6103961128
94.8615126903
134.997396307
102.397326233
87.6682713706
79.3995951534
74.2174084811
71.3442670271
69.8858501571
69.6158999109
69.7850584802
70.0828470093
70.2443154018
70.254968829
70.055849518
69.5914436622
68.850187772
67.8758512952
66.7160695996
65.4058477373
63.9784081781
62.4656381013
60.8949147264
59.2893602157
57.6690786892
56.0512067785
54.4483516965
52.8702191013
51.3242044475
49.8155675612
48.3481590916
46.9249406096
45.5482331283
44.2199108111
42.941607864
41.7146876647
40.5401735968
39.4186405653
38.3501913775
37.3344776761
36.370778843
35.4580892329
34.595207461
33.7807952578
33.0134244621
32.291618519
31.6138851786
30.9787448536
30.3847448462
29.8304705044
29.314545189
28.8356291318
28.392411258
27.9836009656
27.6079169125
27.2640759444
26.9507819983
26.6667150291
26.4105221116
26.1808086444
25.9761332562
25.7950029767
25.6358728555
25.4971459219
25.3771776146
25.2742805201
25.1867330833
25.1127885299
25.0506870144
24.9986676006
24.9549825665
24.9179110274
24.8857736225
24.8569460635
24.8298728112
24.803078838
24.7751803504
24.7448935649
24.7110420953
24.6725622393
24.6285067011
24.5780462308
24.5204697797
24.4551827335
24.3817038695
24.2996608795
24.2087847306
24.1089033335
23.9999342431
23.8818756929
23.7548007138
23.6188476216
23.4742012085
23.3210933643
23.1598084891
22.9906816387
22.8140811713
22.6302966235
22.4397098176
22.2428052585
22.0401254308
21.8322412922
21.6196170305
21.4020910483
21.1807315175
20.9564410775
20.7300604671
20.5028970695
20.276014065
20.0500305732
19.825932973
19.6049232732
19.388454187
19.1782949856
18.9766358383
18.7862426751
18.6105841277
18.4540711953
18.3216370126
18.2193394369
18.149338291
18.1121530535
112.153535479
166.795354556
134.557910332
109.081330009
94.629023824
86.3239621946
81.3853906173
78.2730307967
76.526446908
75.4526414969
74.6760277066
73.9608239138
73.0942583989
72.0256675889
70.7590819525
69.3361460649
67.8063269108
66.165881527
64.4129166906
62.5594478448
60.639795607
58.6879392901
56.7312059036
54.7925809648
52.8905054857
51.0393924331
49.2484241564
47.5235203845
45.868199737
44.2837656126
42.7698983238
41.3253972194
39.948416148
38.6367153152
37.387933858
36.1997155099
35.0697954029
33.9960007057
32.9762911189
32.008669784
31.0911452109
30.2217166514
29.3983732453
28.619109621
27.8819480329
27.184960752
26.526287168
25.9041438114
25.3168335857
24.7627538696
24.2404016175
23.7483767369
23.2853824331
22.8502232747
22.4418011485
22.0591090373
21.7012238766
21.3672976897
21.056548542
20.7682501388
20.5017215383
20.2563159639
20.0314099641
19.8263922769
19.6406532749
19.4735747325
19.3245203977
19.1928274253
19.0777988651
18.9786974945
18.8947409928
18.8250988461
18.7688907402
18.7251869525
18.6930103777
18.6713403585
18.6591180249
18.6552532061
18.6586323752
18.6681276155
18.6826062368
18.7009408861
18.7220197108
18.7447564906
18.7681001592
18.7910439577
18.8126332269
18.8319725767
18.8482313588
18.8606472131
18.8685294284
18.8712562256
18.8682714671
18.8590955443
18.8433191346
18.8205118785
18.79034577
18.7526391834
18.7073158761
18.6543508598
18.5929624889
18.5234398068
18.4463369594
18.3621110601
18.2711798407
18.174076722
18.0719782807
17.9649063335
17.8531102056
17.7370026121
17.6172195961
17.494517243
17.3697265295
17.243801941
17.1178815525
16.993342893
16.8718786234
16.7555585932
16.6469446659
16.5491676946
16.4660749052
16.401826464
16.3613917062
16.3461527995
16.3560661869
123.049331632
190.922047529
154.605164537
125.509936477
109.085860749
98.8980538613
92.0035910021
87.2881731193
83.8055366094
81.5669714499
79.7836519085
78.1577163718
76.4661570676
74.6969671239
72.7765459329
70.6777242677
68.4252266615
66.1040944946
63.7760441342
61.4770389692
59.2242132426
57.017925231
54.8515125076
52.7292420599
50.6632617192
48.6670866019
46.751004123
44.9215631403
43.1821503621
41.5335878933
39.9745458539
38.5021085307
37.1125391582
35.801588132
34.5646949808
33.39721814
32.2947087092
31.2529037581
30.267803449
29.335754277
28.4534245809
27.6177651339
26.8259973632
26.0755800656
25.3641392164
24.68945758
24.0494563328
23.442181121
22.8657986031
22.3185899528
21.7989470921
21.3053692652
20.8364584874
20.3909184725
19.9675504626
19.5652523865
19.1830143601
18.8199167478
18.4751250249
18.1478864444
17.8375246039
17.5434350418
17.2650797877
17.0019821004
16.7537209088
16.5199247499
16.3002659477
16.0944538744
15.9022288153
15.7233547425
15.5576128852
15.4047942474
15.2646930194
15.1370991712
15.0217920538
14.9185334569
14.8270618663
14.747086568
14.6782831388
14.6202891494
14.5727012734
14.5350730205
14.5069138355
14.4876890625
14.4768212611
14.4736924633
14.4776476155
14.4879989144
14.5040310025
14.5250068572
14.5501739318
14.5787703562
14.6100306271
14.6431851191
14.6774710778
14.7121057875
14.7462796253
14.7792779236
14.8104306137
14.8383600394
14.8625159077
14.8828032654
14.899049736
14.911083538
14.9195362001
14.9240686788
14.9241640089
14.9194869543
14.9098400061
14.8951566049
14.8755729682
14.8512069827
14.8222166542
14.7888308608
14.751391901
14.7103591542
14.6663305604
14.6200480225
14.5724569545
14.5246974717
14.4782142502
14.4347947943
14.3966499541
14.3664596416
14.3474633015
14.3431016434
14.3574416073
14.3914590254
14.4448707291
133.140457787
214.866014719
174.440556744
141.574767606
123.251601142
111.356364892
103.128603687
97.1090225551
92.3843587574
88.9388504135
86.1440585037
83.5472376163
80.9287525415
78.1660564157
75.2892372014
72.366424091
69.462352591
66.6230586391
63.8483938986
61.1264193008
58.4736018553
55.9188487545
53.4835229933
51.1764853999
48.9957765736
46.9336085723
44.9802413642
43.1293862621
41.378146294
39.7250105403
38.1680419386
36.7041685507
35.3294469186
34.0393336311
32.8288059597
31.6925834732
30.6253149773
29.6218966064
28.6774203969
27.7872534366
26.9471382044
26.153205514
25.4019286651
24.6901367504
24.0149937115
23.3739470671
22.7646989341
22.1851749006
21.6334835374
21.1078913612
20.6068035698
20.1287488091
19.6723663919
19.2363966148
18.8196727149
18.421113816
18.0397197429
17.6745659813
17.3247999925
16.9896375362
16.6683596074
16.3603093692
16.0648891024
15.7815573777
15.5098260008
15.2492573881
14.9994616259
14.7600939724
14.5308520059
14.3114730886
14.1017315044
13.9014357473
13.7104255486
13.5285688876
13.3557587956
13.191910008
13.036955456
12.8908425346
12.7535292794
12.6249802341
12.5051623577
12.3940407198
12.2915743108
12.1977117675
12.1123872965
12.0355166667
11.9669935563
11.906686161
11.8544343026
11.8100469641
11.773300455
11.7439371241
11.7216647167
11.7061560273
11.6970487597
11.6939418427
11.696396254
11.7038772799
11.7158543623
11.7315127882
11.7497969595
11.7705109949
11.7933849412
11.8188348304
11.8464788102
11.8755199357
11.9052826255
11.9351873059
11.964835803
11.9938350815
12.0217753269
12.048264991
12.0729521739
12.095540779
12.1158149436
12.1336244262
12.1488855797
12.1615888753
12.1718158198
12.1797517217
12.1857109263
12.1901461731
12.1937060374
12.1972294719
12.201814191
12.2088653292
12.2201495583
12.2378225608
12.2644873788
12.3028986276
12.3563221148
12.4255246593
12.510102735
149.451683336
249.659587611
214.730248431
187.656785868
155.600444466
136.116845907
123.001002861
113.704095867
106.562338835
100.660846806
96.1208126504
92.3213165357
88.7821081044
85.3004730846
81.7930988998
78.3284803198
74.8462073485
71.3261273046
67.8218279563
64.4334274039
61.2173629634