/*--------------------------------*- C++ -*----------------------------------*\
| =========                 |                                                 |
| \\      /  F ield         | OpenFOAM: The Open Source CFD Toolbox           |
|  \\    /   O peration     | Version:  5.x                                   |
|   \\  /    A nd           | Web:      www.OpenFOAM.org                      |
|    \\/     M anipulation  |                                                 |
\*---------------------------------------------------------------------------*/
FoamFile
{
    version     2.0;
    format      ascii;
    class       volScalarField;
    location    "3000";
    object      k;
}
// * * * * * * * * * * * * * * * * * * * * * * * * * * * * * * * * * * * * * //

dimensions      [0 2 -2 0 0 0 0];

internalField   nonuniform List<scalar> 
10996
(
0.359575932815
0.341405044808
0.3217858798
0.303007058713
0.28630409712
0.27222502085
0.260872829393
0.252206641452
0.245970041522
0.241931170901
0.239712378053
0.239241757388
0.240231058787
0.242139059557
0.244720577096
0.247817593476
0.252834096035
0.253611931999
0.474866666497
0.466958354621
0.441219293025
0.422355600919
0.412103966664
0.40944197197
0.412348322536
0.420097640361
0.430655742396
0.443861813061
0.457577576835
0.47057082811
0.482099740876
0.491217348131
0.497293088979
0.499309354615
0.497118036312
0.48439087534
0.408237999918
0.418781588794
0.414510331907
0.406878860702
0.399880177722
0.394610172558
0.391257728115
0.389798905176
0.389923027662
0.391342821902
0.393739307939
0.396731139423
0.399931110758
0.402957163217
0.405505394285
0.40741098688
0.40874751268
0.410899333199
0.382715452304
0.387988257019
0.388980636565
0.387379174349
0.384658347477
0.381682560843
0.378913270973
0.376591728756
0.37481886388
0.373661857643
0.373124735831
0.373221286831
0.373989232235
0.375545535582
0.378148893029
0.3823346711
0.389293140769
0.401880300345
0.375660559848
0.376841930508
0.377205636963
0.376637644757
0.375397683695
0.373784544045
0.372046477119
0.370384866946
0.368956195325
0.367887666657
0.36730872046
0.367396748556
0.368406800862
0.370725604883
0.374917967269
0.381823675279
0.392668316822
0.409220056493
0.373592384813
0.372746482783
0.37203293655
0.371184120107
0.370159386137
0.369012043365
0.367839653984
0.366751189126
0.36586444718
0.365312997752
0.365262290229
0.365947181408
0.367702797738
0.370996023614
0.376432510173
0.384753012936
0.396776514287
0.413016709228
0.373005027331
0.371295001935
0.369860300471
0.368578312527
0.367393634287
0.366300926178
0.365324640743
0.36452135051
0.363978332672
0.363816298238
0.36420076959
0.365368109156
0.367645588651
0.371457515613
0.37729957178
0.38568516703
0.39703573001
0.411177241431
0.372865395312
0.370877311181
0.369138284836
0.367605717221
0.366255063414
0.365082307307
0.364103049773
0.363359392714
0.362924359067
0.362906129813
0.363457141442
0.36479069419
0.367190400485
0.371000759318
0.376587107822
0.384266021224
0.394197560112
0.405953768326
0.372821769501
0.370726433069
0.368845520301
0.367170230227
0.365697666445
0.364436164293
0.363405259315
0.362643715477
0.36221673035
0.36222111008
0.362792224217
0.364113736412
0.366419882807
0.369979639965
0.375055059941
0.381831841481
0.390329462209
0.40005686398
0.37280733433
0.370666965931
0.368714393077
0.366953285142
0.365391802817
0.364047046134
0.362943881876
0.362120959348
0.361637677398
0.361578858358
0.362059039731
0.363226372194
0.365259326394
0.36834854431
0.372660560076
0.378282746227
0.385164085992
0.392868277618
0.37280402951
0.370645712791
0.368658363315
0.366849029543
0.365228525656
0.36381614028
0.362638312748
0.361731971081
0.3611496259
0.360962565033
0.361262491551
0.362161291828
0.363784931517
0.366257041575
0.369671653428
0.374055515187
0.379333337241
0.385165069826
0.372805120869
0.370639419795
0.368633242078
0.3667941509
0.365132118055
0.363664535857
0.362415552629
0.361417468175
0.360713792342
0.360360899487
0.360427735863
0.360993341745
0.362140285082
0.363941975741
0.366444528029
0.369644159935
0.373469311742
0.377677018472
0.372808429737
0.37063981629
0.368621238703
0.366759783871
0.365063783267
0.36354730754
0.362230225978
0.361138547801
0.3603058554
0.359773825288
0.359590968701
0.359809526094
0.360479865004
0.361641812646
0.363313824572
0.36548094325
0.368086915171
0.370968324163
0.372813114792
0.370644066316
0.368616361121
0.366735893565
0.365009237455
0.363447022689
0.362064417251
0.360881015124
0.359921197805
0.359213939133
0.358791341821
0.358685857281
0.358926197466
0.359531954505
0.360507747121
0.361837370862
0.363481082567
0.365333130271
0.372818445693
0.370650479882
0.368616002157
0.366719155908
0.364964678769
0.363360082711
0.361916216639
0.360647032124
0.35956936132
0.358702371952
0.35806625876
0.357680158285
0.357559450276
0.357712678048
0.358138613162
0.358823616834
0.359741263261
0.360824901465
0.372823432773
0.370657089332
0.368617592149
0.366707072031
0.364928407039
0.363286446538
0.361788446744
0.360443820799
0.359263690708
0.358260237137
0.357445657942
0.3568307399
0.356423200116
0.356226008181
0.35623601147
0.356442778762
0.356829213445
0.357354267996
0.372826762305
0.370661284367
0.36861757002
0.36669581843
0.364897159927
0.363224281876
0.36168166463
0.360275317353
0.359012303811
0.357900125355
0.356945927721
0.356155547698
0.355532522656
0.355077185625
0.354786048659
0.35465127573
0.354661674476
0.354792610641
0.372827221634
0.370660535616
0.368612278447
0.366681180591
0.364867019155
0.363170961018
0.361595578346
0.360144583022
0.358822378182
0.357633549213
0.356582225819
0.355671444683
0.354902509093
0.354274497268
0.353783959533
0.353424672434
0.353188716475
0.353061210963
0.372825131375
0.370655343803
0.368602107704
0.366663225744
0.364837691834
0.363125805564
0.361529016401
0.360049627506
0.35869045759
0.35745434975
0.356343675283
0.355359830904
0.354502853231
0.353771077862
0.353161038982
0.352667301217
0.352283598824
0.352000503018
0.372821858197
0.370648179666
0.368589900032
0.366644306046
0.364810116594
0.363087260335
0.361476543533
0.35997946277
0.358597882689
0.357333592074
0.356187851065
0.355161048762
0.35425240437
0.353459770612
0.352779570956
0.352206734887
0.351735780141
0.351360407606
0.372818370759
0.370640732855
0.368577515481
0.366625931968
0.364784981597
0.363054511113
0.361434951939
0.359927345919
0.358532986258
0.357252905633
0.356087534979
0.355036468767
0.354098250317
0.35327023269
0.352548580776
0.3519282451
0.351404036263
0.350971484293
0.372815321604
0.370634607696
0.368567777174
0.366612704373
0.364769293869
0.363037399448
0.361417028974
0.359908691525
0.358512912207
0.357229740549
0.356058580462
0.354998054675
0.354045861476
0.353198667588
0.352452180328
0.351801126516
0.351240346795
0.350766586956
0.372813991346
0.370635029077
0.368573317556
0.366628084414
0.364799391851
0.363085608844
0.361484970142
0.35999611738
0.358617504455
0.357347189526
0.356182924736
0.355122075048
0.354161437969
0.353297150833
0.352524715917
0.351838981118
0.351235167836
0.350711659223
0.372822639103
0.370672630072
0.36865948573
0.366778261945
0.365020592257
0.36337533756
0.361833928328
0.360390642672
0.359041261209
0.357782621227
0.356612430686
0.355528766947
0.354529603906
0.353612538791
0.35277470336
0.352012646217
0.351323359895
0.350708188129
0.372895787444
0.370912377102
0.369111643383
0.367443105473
0.365865221748
0.36434826224
0.362878483337
0.361453221696
0.360075253057
0.358749897152
0.357483286653
0.356281076925
0.355147710415
0.354086154348
0.353097912952
0.352183057145
0.351341391886
0.35057788205
0.373332392309
0.372057068727
0.370889743792
0.369640750669
0.368253577356
0.366738993867
0.365137082644
0.363492874681
0.361846079788
0.360229041507
0.358666952732
0.357178476048
0.355776650507
0.354469898478
0.353262954352
0.35215755894
0.351154011768
0.350257019541
0.375579531554
0.376536807995
0.376474523609
0.375344161781
0.373503262499
0.371269151267
0.368866817849
0.366443710144
0.364093276403
0.361873963107
0.359821267317
0.357955113867
0.356284800708
0.354812364881
0.353534880198
0.352445915624
0.3515372384
0.350802008383
0.386580877936
0.391861309964
0.390334539594
0.386139675443
0.381326777315
0.376624136107
0.372331717804
0.368559745531
0.365335940988
0.362653103999
0.360487545451
0.358807169109
0.357576023777
0.356756917967
0.356312853191
0.356207743302
0.356407364479
0.356874042475
0.419548600201
0.418110009105
0.405399966671
0.392900563434
0.382706728553
0.374913372588
0.36925419124
0.365395794586
0.36302783528
0.361892964472
0.361780774856
0.362517673828
0.3639592899
0.365984567891
0.368490949202
0.37139112508
0.374609122197
0.378067137379
0.364317416879
0.353246194313
0.341809021101
0.330478746056
0.319651937458
0.309549637537
0.300280599013
0.291878933803
0.284333728613
0.277609024348
0.271655742773
0.266418775815
0.26184124453
0.257867015985
0.254442125081
0.251515552942
0.249039543999
0.246971322262
0.104195098854
0.137893444103
0.155686812951
0.127680205547
0.135856475705
0.1472681971
0.157791966504
0.168163916528
0.178719848051
0.188962149165
0.198294685758
0.206638928061
0.21408640339
0.220745559021
0.22671316458
0.232070046182
0.236880172326
0.241194766332
0.245056426397
0.248501872118
0.251563925578
0.254272399435
0.256654891593
0.258736992504
0.260542709227
0.262094447799
0.263413250206
0.264518718554
0.265429158745
0.266161586981
0.266731811058
0.267154724183
0.267443392392
0.267609741614
0.267665187959
0.267620393534
0.26748512547
0.26726830769
0.266978197336
0.266622385409
0.266207898997
0.265741205904
0.265228290501
0.264674656063
0.264085378259
0.263465119241
0.262818173286
0.2621484828
0.261459675718
0.260755074032
0.260037726643
0.259310411765
0.258575671288
0.257835830267
0.257093000646
0.25634910004
0.255605866119
0.254864865738
0.254127504927
0.253395040366
0.252668590786
0.251949147408
0.251237576223
0.250534620601
0.249840897481
0.249156895951
0.248482968472
0.24781931253
0.247165959111
0.246522731003
0.245889229393
0.245264749329
0.244648263695
0.244038264824
0.24343273542
0.242828852509
0.242222921077
0.2416098189
0.240982808883
0.240332453846
0.239645879216
0.238939629018
0.238176982149
0.23734332778
0.236370768502
0.235215053504
0.233661005535
0.231743457234
0.228106982492
0.0844732663006
0.109342932836
0.128420513281
0.164388286505
0.222093964482
0.260365826244
0.288448360108
0.315012704977
0.340486298518
0.36742370564
0.390987168565
0.411685066944
0.429904370724
0.445870616299
0.459701142016
0.47155952515
0.481641000388
0.490138418998
0.497222870635
0.503042462755
0.507724777548
0.511380825261
0.51410879091
0.515996810006
0.517125149399
0.517567596795
0.517392203131
0.516661846657
0.515434289402
0.513762793757
0.511695843065
0.509278220005
0.506550154575
0.503549148449
0.500308438112
0.496858689283
0.493228056696
0.489441580165
0.485522067624
0.481490311917
0.477365187667
0.473163818558
0.468901722861
0.464592944831
0.460250169425
0.455884837476
0.451507240562
0.447126618357
0.442751237346
0.438388476398
0.434044901152
0.429726343519
0.425437957229
0.421184299043
0.416969337269
0.412796625823
0.408669181913
0.404589574932
0.400559979944
0.396582235285
0.392657872437
0.388788154712
0.384974094217
0.381216484512
0.37751590883
0.373872777096
0.370287317675
0.366759624957
0.363289638409
0.359877185954
0.356521935515
0.353223474832
0.349981211737
0.346794521367
0.34366253778
0.340584430362
0.337559003219
0.334585225609
0.331661439955
0.328786420375
0.325957751876
0.323174295043
0.320431723249
0.317730995381
0.315039754747
0.312392869141
0.309749185371
0.307150593415
0.304546697334
0.302264708341
0.300015023352
0.301035453724
0.0965404873267
0.10993110193
0.122227468033
0.143128846891
0.187933560241
0.231785438507
0.275812770206
0.317720941406
0.356923184749
0.392419254856
0.425016390021
0.454917764178
0.482270029594
0.507405631814
0.530239440617
0.550794171889
0.569119629165
0.585247401788
0.599244077036
0.611222108109
0.621321385212
0.629691857005
0.636482062509
0.641832988173
0.645875652273
0.648730955886
0.650510362726
0.651316936634
0.651246084641
0.65038613552
0.648818670195
0.646618823345
0.643855626191
0.640592269076
0.63688660007
0.632791302364
0.62835450643
0.623620029293
0.618627624241
0.613413361743
0.608009417239
0.602445381039
0.596748088119
0.590941805645
0.585048446976
0.579087795134
0.573077666263
0.567034093482
0.56097146587
0.554902677901
0.548839249264
0.54279144819
0.536768394467
0.530778176066
0.524827927806
0.518923944442
0.513071703849
0.50727603264
0.501541006392
0.495870164933
0.490266533568
0.484732672494
0.47927072301
0.473882448731
0.468569264455
0.463332274508
0.458172295966
0.453089898939
0.448085424285
0.443159017851
0.438310657248
0.433540163778
0.428847184462
0.424231273976
0.419691836699
0.415228242341
0.410839705372
0.406525470562
0.40228459799
0.398116276436
0.3940194744
0.389993430847
0.386037138217
0.382150111254
0.378331754256
0.374582623458
0.370903465166
0.367292789214
0.363754337129
0.360320310031
0.357022354633
0.35391175816
0.351299614247
0.34931411149
0.349951736733
0.119806156847
0.127337708539
0.124455485919
0.1386038293
0.175416826392
0.213716306909
0.252758263991
0.291746178972
0.330798263591
0.369800400347
0.406958811999
0.442012663938
0.475122024665
0.506302850905
0.535434114742
0.562478742311
0.587512252264
0.61051974349
0.631496763886
0.650422387094
0.667264312999
0.682029693808
0.694775115003
0.705594729644
0.714605227065
0.721933777768
0.727709607176
0.732059119666
0.735103412191
0.736957309287
0.737729033325
0.737520194471
0.736425791761
0.734534310654
0.73192782261
0.728682214899
0.724867410605
0.720547711316
0.715782074602
0.710624497524
0.705124374942
0.699326828283
0.693272743172
0.686999482172
0.680540782177
0.673927165785
0.667186262398
0.660343037059
0.653420071313
0.646437739097
0.639414401566
0.63236656561
0.625309049437
0.618255120181
0.611216630747
0.60420413554
0.597227015724
0.590293569417
0.583411129335
0.576586103493
0.569824128064
0.563129990748
0.556507903183
0.549961470557
0.543493756172
0.537107332092
0.530804331249
0.524586483083
0.518455159898
0.512411404206
0.506455979536
0.500589380338
0.494811899578
0.489123592886
0.483524374451
0.478013999044
0.472592134846
0.467258311662
0.462012045152
0.456852722341
0.451779819706
0.446792670848
0.441890865363
0.437073848008
0.432341631295
0.427694050959
0.423132190124
0.418656950122
0.414272493183
0.409982864513
0.40580145187
0.401730064427
0.397812350946
0.394103178086
0.390696648266
0.387875823767
0.385841089744
0.385765647586
0.14383330013
0.149772431167
0.147173507915
0.155633117841
0.184367233293
0.2162248061
0.250077378762
0.28478692219
0.319557350504
0.354280182041
0.388398429488
0.421687844451
0.45399926486
0.484656030796
0.513647075595
0.541184191472
0.567353775612
0.592125879221
0.615448432498
0.637297764103
0.657639180152
0.676435287611
0.693638841538
0.709198229472
0.723081022816
0.735286133948
0.745844084311
0.754810947777
0.762260717728
0.768278273975
0.772954111745
0.776380667997
0.778649983227
0.779852115755
0.780074200017
0.779399714595
0.777908114126
0.775674491552
0.772769524204
0.769259370684
0.765205796161
0.760666205296
0.755693863323
0.750338026834
0.744644211754
0.738654182196
0.732406320478
0.725935765348
0.719274681952
0.712452422986
0.705495733138
0.698428998586
0.691274351773
0.684051863189
0.676779740765
0.669474473457
0.662150971818
0.654822682586
0.647501708052
0.640198912837
0.632924026957
0.62568573532
0.618491775327
0.611348986813
0.604263485084
0.597240586516
0.590284921656
0.583400508999
0.576590820434
0.569858836555
0.563207092458
0.556637722228
0.550152492049
0.543752849755
0.537439941701
0.53121467692
0.525077701979
0.519029504224
0.513070399851
0.507200602226
0.501420196457
0.495729251412
0.49012775354
0.484615794548
0.479193400618
0.473860936773
0.468618810012
0.463468130442
0.45841017311
0.453447748535
0.448584222835
0.443826764311
0.439184924595
0.434676292662
0.430310602699
0.426130471708
0.422210644016
0.41866282061
0.41573370641
0.413614097201
0.412998507193
0.166405654036
0.171707713945
0.17006517963
0.17522195551
0.199152239934
0.227042625815
0.257233911779
0.288944765101
0.320722825644
0.352452185354
0.383170949971
0.412567358944
0.440770828365
0.467779656179
0.493637750124
0.518236572045
0.541353609081
0.563015060927
0.583395671474
0.602653306228
0.620883590795
0.638133153427
0.654426019797
0.669768288947
0.684150192102
0.697544614252
0.709912151907
0.721212991168
0.731417113089
0.740509377971
0.748490574225
0.755375891275
0.761192344079
0.765976007776
0.769769586846
0.772620337904
0.774578461777
0.775695808759
0.776024911795
0.775618205414
0.774527441502
0.772803218146
0.770494624642
0.767648966767
0.764311564089
0.760525619752
0.756332134362
0.7517698799
0.746875321085
0.741682647497
0.736223833848
0.730528749766
0.72462519011
0.718539003953
0.712294080595
0.705912570953
0.699414961179
0.692820162801
0.686145604891
0.679407318362
0.672620014888
0.665797172864
0.658951117944
0.65209310597
0.645233389627
0.638381304285
0.631545307328
0.62473308342
0.617951564337
0.611206989673
0.604504951442
0.597850453078
0.591247960538
0.584701450147
0.578214450211
0.571790079286
0.565431088863
0.559139898647
0.552918633441
0.546769171582
0.540693158215
0.534692029971
0.528767091473
0.522919520089
0.517150466106
0.511461037883
0.505852454866
0.500325949456
0.494883165132
0.489525975362
0.484257048215
0.479079602071
0.473998581065
0.469020295383
0.464154803229
0.459418608896
0.454822964959
0.450391399666
0.44617019986
0.44224396936
0.438727216433
0.435829687353
0.433709548831
0.432767024434
0.185643142571
0.19088594783
0.190852023297
0.194430185179
0.215403593591
0.240499194023
0.267895175715
0.297159546713
0.32650152632
0.355717744027
0.38375757243
0.410172947343
0.435025077072
0.458230190361
0.479902920286
0.50013920959
0.519011035179
0.536581486166
0.552863241635
0.567858837903
0.58166136125
0.594430816224
0.606332268791
0.617500439028
0.628036344775
0.638014262604
0.647486677844
0.656486531222
0.66502693625
0.673103797224
0.680701372212
0.687798395685
0.694372659968
0.700404080203
0.705876447225
0.710778202595
0.715102624384
0.718847648404
0.722015497159
0.724612261763
0.72664744343
0.728133563136
0.72908573304
0.729521309862
0.729459486486
0.728920968994
0.727927591798
0.726502030063
0.724667468818
0.722447373189
0.719865225784
0.716944333794
0.713707621133
0.710177521369
0.706375873483
0.702323835302
0.698041823236
0.693549396594
0.688865328808
0.68400755724
0.678993157949
0.673838352598
0.668558499061
0.66316810428
0.657680837503
0.652109556378
0.646466331857
0.640762474455
0.635008567291
0.629214488643
0.623389445119
0.617542002791
0.61168011541
0.605811154965
0.599941939405
0.594078768551
0.588227453513
0.582393349284
0.576581383671
0.570796092848
0.565041655852
0.559321927263
0.553640471578
0.548000599683
0.542405395836
0.536857785173
0.53136055871
0.525916466845
0.520528233751
0.515198714195
0.509930844599
0.504728032349
0.499594034749
0.494533481637
0.489551876164
0.484656604476
0.479856688095
0.475164865614
0.470597642301
0.466171015457
0.461919099325
0.457894616104
0.454181789872
0.450890891072
0.448197613818
0.446221935968
0.445184512551
0.210024969926
0.209069391254
0.20384905849
0.206453356715
0.210767513345
0.23055245367
0.25404003517
0.279353497754
0.306429914278
0.33345158723
0.360106033402
0.385371789014
0.408725261911
0.430203603028
0.449757525016
0.467540812857
0.483704988827
0.498352765791
0.511593599826
0.52352639001
0.534247615949
0.543853541502
0.552426214531
0.560050134825
0.566836478922
0.572922010712
0.578440051602
0.583508802131
0.588227378027
0.592676935952
0.596923136566
0.60101717466
0.604995909683
0.608882501672
0.61268842191
0.616415825864
0.620059760238
0.623609999011
0.627052554382
0.630370875381
0.633546836545
0.636561523518
0.639395915318
0.642031439594
0.644450478606
0.646636778421
0.648575805279
0.650255000685
0.651663965555
0.652794548459
0.653640865258
0.654199250297
0.654468159261
0.654448036185
0.654141149397
0.65355141081
0.652684179252
0.651546082995
0.650144843208
0.648489118015
0.646588318412
0.644452513978
0.642092207292
0.639518234856
0.636741668308
0.633773717909
0.6306256408
0.627308662983
0.623833909746
0.620212347758
0.616454735277
0.612571579672
0.608573102521
0.604469211219
0.600269470232
0.595983088756
0.591618906722
0.587185391776
0.582690631651
0.57814233713
0.573547844103
0.568914118555
0.564247765045
0.559555044214
0.554841894966
0.550113957274
0.545376581342
0.540634867633
0.535893703485
0.531157834907
0.526431899126
0.521720502273
0.517028200205
0.512359744969
0.507720063544
0.503114642029
0.498549225226
0.494030521292
0.489566464693
0.485166049654
0.480840906152
0.476603721391
0.472476033164
0.468485695911
0.464671103311
0.46108687187
0.457814310058
0.454955583849
0.452656800322
0.451002854735
0.450106995765
0.23716719607
0.236414087001
0.237982015719
0.235037207013
0.244208842749
0.255655169327
0.272451017523
0.293494749809
0.317431521176
0.341370395346
0.364868074854
0.386920405196
0.406913237654
0.424817033258
0.440627443118
0.4545378979
0.466739519878
0.477383872779
0.486611525615
0.494565184375
0.501366769599
0.507133088821
0.511972797866
0.515986200932
0.519264602456
0.521893457151
0.523956792205
0.525545457275
0.52675553385
0.527680008111
0.528403135588
0.528998337503
0.529528248297
0.530046047754
0.530596184303
0.531214754344
0.531929816963
0.532762123062
0.533725953647
0.534829882119
0.536077422749
0.537467522133
0.538995015337
0.540651008945
0.542423284728
0.544296705814
0.546253656575
0.548274520898
0.550338168314
0.552422474383
0.554504801433
0.556562490068
0.558573269507
0.5605156593
0.562369269718
0.564115085651
0.565735648743
0.567215221528
0.568539860103
0.569697473022
0.570677814707
0.571472472612
0.572074808751
0.572479887
0.572684381422
0.572686473609
0.572485728219
0.572082976236
0.571480187615
0.570680354258
0.569687368819
0.568505913028
0.56714134629
0.565599603849
0.563887097176
0.562010624101
0.559977281551
0.557794387973
0.555469410349
0.553009905285
0.550423464005
0.547717663254
0.544900022242
0.541977969971
0.538958802695
0.535849662678
0.532657527935
0.529389219099
0.526051391209
0.522650489189
0.51919279578
0.51568449945
0.512131768204
0.508540781398
0.50491770657
0.50126855957
0.497599717416
0.493917981239
0.490230884971
0.48654541962
0.482869931651
0.479214923358
0.47558741555
0.472003897516
0.468490819181
0.465070728493
0.461773694646
0.45864046857
0.455726299297
0.453108326238
0.450879036432
0.449160282768
0.448008543341
0.447474397336
0.263573377581
0.261444569624
0.258800329881
0.260752712472
0.259564475104
0.271460217983
0.286708610026
0.303616860122
0.321247971136
0.338473327997
0.356400236598
0.374668683151
0.391968543624
0.407522686392
0.421215920311
0.432965444904
0.442902182971
0.451217372978
0.458072133558
0.463619223103
0.46800927896
0.471378598479
0.47385310026
0.475552024955
0.476581963238
0.47703514197
0.476993964289
0.476531275543
0.475712869817
0.474600304497
0.47325259107
0.471728667202
0.470086472752
0.468380222702
0.466658643419
0.464964168741
0.463333158172
0.461796588158
0.460380744121
0.459107638454
0.45799544058
0.457058920962
0.456309914537
0.455757689869
0.455409187343
0.455269145274
0.455340147202
0.455622609854
0.456114759091
0.45681259723
0.457709906968
0.458798277426
0.460067186211
0.461504114477
0.463094715997
0.464823016859
0.466671654433
0.468622136569
0.470655119634
0.472750692898
0.474888661442
0.477048821312
0.479211216919
0.481356380709
0.483465547489
0.485520846002
0.487505459861
0.489403761794
0.491201414796
0.492885451207
0.494444321091
0.495867913385
0.497147551167
0.498275969026
0.499247273806
0.500056891533
0.500701503276
0.501178971263
0.501488257802
0.501629340507
0.501603120217
0.501411333153
0.501056457028
0.500541626465
0.499870549025
0.499047418314
0.498076843206
0.496963775322
0.495713407425
0.494331129621
0.492822516194
0.49119332693
0.489449433171
0.487596571537
0.485640595179
0.483587656921
0.481444227448
0.479217040157
0.476912740134
0.474536904936
0.472097060493
0.469601695013
0.467059887905
0.464476450357
0.461860336692
0.459227391844
0.456599486776
0.453994084216
0.451430976744
0.448935209897
0.446538882479
0.444283975093
0.442225056683
0.440434284592
0.438994332793
0.438007866285
0.437510306832
0.437517196527
0.290103265566
0.291349592543
0.292718450303
0.286170547743
0.290303880358
0.296618257973
0.30849722448
0.323973198196
0.341357266968
0.35834139617
0.374174680575
0.388063848091
0.400298847265
0.411079264005
0.420336323555
0.427957344706
0.434050227239
0.438774486737
0.442252408158
0.444621106685
0.446026968248
0.446605528418
0.44648178261
0.445773516691
0.444585912086
0.443006588345
0.441110284397
0.438960331968
0.436609359484
0.434102241031
0.431478299821
0.428772364474
0.426016145692
0.423239394504
0.420470358173
0.417735623457
0.415059344972
0.412462732335
0.40996381783
0.407577683097
0.405316802785
0.403191497392
0.401210266442
0.39938011479
0.397706883235
0.396195540033
0.3948504459
0.39367550043
0.392674252363
0.39184990396
0.391205293249
0.390742806403
0.39046428175
0.390370883785
0.39046297585
0.39073999398
0.391200322505
0.391841194705
0.392658598776
0.393647225819
0.394800426096
0.396110215771
0.397567292725
0.399161102997
0.400879914942
0.402710938108
0.404640447312
0.406653942637
0.408736309261
0.410872002744
0.413045227556
0.415240126938
0.417440960768
0.419632284406
0.421799106668
0.423927036237
0.426002406999
0.428012388346
0.429945072753
0.431789546519
0.433535937733
0.435175448274
0.436700364383
0.438104053113
0.439380942111
0.440526484769
0.441537117131
0.442410198365
0.443143931222
0.443737329946
0.444190131109
0.444502560443
0.444675425673
0.444710252162
0.444609271673
0.444375184368
0.444009764142
0.443516204423
0.44289913785
0.442163989501
0.441316615729
0.440361853808
0.439298174691
0.438137761221
0.436890910649
0.435567528582
0.434182738264
0.432749448983
0.431276803243
0.429778880676
0.428272999788
0.426780415845
0.425327370551
0.423946687653
0.4226800893
0.421580017768
0.420712922438
0.42015199401
0.419984698742
0.420232074211
0.420891517613
0.315155969106
0.315827602611
0.314669191034
0.315840691886
0.31031663471
0.316881158395
0.327272850731
0.339294930937
0.351978653915
0.36444645473
0.376838138043
0.388772593172
0.399231750111
0.407884559862
0.414736697075
0.419992793355
0.423983890867
0.426860858576
0.42870550829
0.429563230395
0.42956318638
0.428840694123
0.427515230502
0.425699404778
0.423498334262
0.421003616502
0.418289485236
0.415416962116
0.412436026274
0.409385873045
0.40629709927
0.403194312855
0.400096938452
0.397020615372
0.393978225241
0.390980755617
0.388037873858
0.385158336152
0.382350373966
0.379621511875
0.376978391585
0.374426592702
0.37197058884
0.369613810269
0.367358808681
0.365207426291
0.363160976955
0.361220405883
0.359386462389
0.357659873318
0.356041488437
0.35453239968
0.353134020716
0.351848129795
0.350676879925
0.349622774054
0.348688621164
0.347877464546
0.347192500874
0.346636977709
0.346214087035
0.3459268443
0.345777968068
0.345769754029
0.345903954277
0.34618165997
0.346603193628
0.347168012689
0.347874626944
0.348720533955
0.349702172445
0.350814898754
0.352052983049
0.353409631631
0.354877030257
0.356446410495
0.358108134979
0.35985180202
0.361666362322
0.363540247597
0.365461506054
0.367417943102
0.369397261322
0.371387199436
0.373375662364
0.375350846961
0.377301349483
0.3792162664
0.38108527203
0.382898671098
0.384647451509
0.386323249887
0.387918322936
0.38942573959
0.390839298074
0.392152373661
0.393359650647
0.394457643959
0.395444083314
0.396317228043
0.397067203376
0.397696221729
0.398209205482
0.398609890661
0.398901686351
0.399089466713
0.399185109486
0.39918812265
0.399101217227
0.398929367028
0.398680548907
0.398364408146
0.397991977736
0.39757642793
0.397133996293
0.396684848026
0.396254301158
0.395873842023
0.395582937371
0.395430174601
0.395475362268
0.395782428694
0.39642628626
0.39741894801
0.398749641717
0.343187829407
0.345127523335
0.344500563634
0.344865779457
0.335848953585
0.336731448784
0.340055856834
0.348216769715
0.359126240654
0.371653445905
0.383437657675
0.393790958604
0.402124023178
0.408757206263
0.413869785159
0.417543523951
0.419805869076
0.420928248936
0.421147173738
0.420648035975
0.419588760304
0.418070895425
0.416141845072
0.41385379043
0.411280421248
0.408500207743
0.405579715092
0.402572691324
0.399522176317
0.396461190713
0.393413730376
0.390396577495
0.387421566693
0.384496542525
0.381626265598
0.37881323532
0.376058676714
0.373362781635
0.3707252644
0.368145700358
0.365623731957
0.363159152892
0.360751993681
0.358402472871
0.356110822476
0.353877198061
0.351701622424
0.349583952609
0.347523909599
0.345521109256
0.343575111137
0.341685489248
0.339851895742
0.338074161505
0.33635235633
0.334686875384
0.333078473927
0.331528318931
0.330037993792
0.328609513464
0.32724530676
0.325948202542
0.324721396982
0.323568416432
0.322493071532
0.321499399606
0.320591605956
0.319773989148
0.319050870854
0.3184265084
0.31790501553
0.317490267362
0.317185816047
0.31699479472
0.316919834872
0.31696297663
0.317125595993
0.317408330886
0.317811027388
0.318332690078
0.31897145307
0.319724560808
0.320588368545
0.321558355503
0.322629156835
0.323794608822
0.325047809646
0.326381192407
0.327786608357
0.329255420087
0.330778595208
0.332346802931
0.333950494933
0.335579910698
0.337225227862
0.338876228167
0.340522255704
0.34215380154
0.343761792725
0.345329396239
0.346849157075
0.348318494734
0.349733721478
0.351091160221
0.352395834143
0.353641929124
0.35482208325
0.3559313026
0.356966319022
0.357925507841
0.358809774982
0.359619696175
0.360356515849
0.361022629844
0.36162222326
0.362161300823
0.36264807744
0.363093120095
0.36351037701
0.363917065289
0.364335513139
0.364793821089
0.365327199654
0.365978649653
0.366800306036
0.367846848731
0.369182118008
0.370813004198
0.372726033225
0.370728300701
0.373842341187
0.373809223727
0.373795465013
0.363082038908
0.361899578232
0.363220316043
0.368738759053
0.376398283045
0.384959174017
0.393185955502
0.400945095727
0.407891480327
0.413230436929