/*--------------------------------*- C++ -*----------------------------------*\
| =========                 |                                                 |
| \\      /  F ield         | OpenFOAM: The Open Source CFD Toolbox           |
|  \\    /   O peration     | Version:  5.x                                   |
|   \\  /    A nd           | Web:      www.OpenFOAM.org                      |
|    \\/     M anipulation  |                                                 |
\*---------------------------------------------------------------------------*/
FoamFile
{
    version     2.0;
    format      ascii;
    class       volScalarField;
    location    "3000";
    object      nut;
}
// * * * * * * * * * * * * * * * * * * * * * * * * * * * * * * * * * * * * * //

dimensions      [0 2 -1 0 0 0 0];

internalField   nonuniform List<scalar> 
10996
(
3.97211184709e-05
3.77114978944e-05
3.55404040998e-05
3.34605326088e-05
3.16080439083e-05
3.00429545008e-05
2.8775922305e-05
2.78014965719e-05
2.70902662804e-05
2.66154954493e-05
2.63347722546e-05
2.62406405811e-05
2.63060899079e-05
2.64907507843e-05
2.68362975034e-05
2.75628037396e-05
2.95786473642e-05
2.39138905053e-05
0.000283739512561
0.000213739378144
0.000178140349806
0.000156981953726
0.000143729302137
0.000135408172972
0.000130145137598
0.000126974489448
0.000125094392522
0.000124214614807
0.000124028464271
0.00012405602792
0.000124142676799
0.000124197082003
0.00012421633827
0.000124248846873
0.000124345161184
0.000124426074889
0.000545255181371
0.000420463149588
0.000354960629973
0.000313197658707
0.000283942507852
0.000262384474558
0.000245906576737
0.00023300005858
0.000222814036232
0.000214964813556
0.000208694138546
0.00020369522244
0.000199864150334
0.000197171732886
0.000195712885528
0.000195829711051
0.000198418577443
0.000206358476099
0.00073840321744
0.000631025062522
0.000555105980002
0.000500526259272
0.000459626761893
0.000428029127949
0.000403016490988
0.000382985690735
0.000366961346457
0.000353712258195
0.000342877553497
0.000334251357195
0.000327809177485
0.000323724360927
0.000322437529001
0.000324834187474
0.000332677440099
0.000349377281894
0.000819785233307
0.000767900560049
0.000715536748829
0.000669151784303
0.000629754633287
0.000596814284644
0.00056953643215
0.000546900183332
0.000527972706192
0.000512262262198
0.000499487924005
0.000489555949193
0.000482580038218
0.000478922817762
0.000479249120613
0.000484622385324
0.000496594273032
0.000517036863176
0.000844142328568
0.00082639292961
0.000802568784894
0.000776456582651
0.00075061827351
0.000726599909899
0.000704881397521
0.000685631293035
0.000668900944333
0.000654705110582
0.000643099964061
0.000634241284393
0.000628432964162
0.000626164545836
0.000628116275038
0.00063513281861
0.00064810245743
0.000667390254982
0.000850163466632
0.000845273889057
0.000837280601452
0.000826831055998
0.000814897629733
0.000802310612043
0.000789784783286
0.000777854238081
0.00076693075359
0.000757356747523
0.000749458626135
0.000743601657835
0.00074022942725
0.000739877014228
0.000743138497056
0.000750589386224
0.000762621714796
0.000778844575723
0.000851315093199
0.000849660508701
0.000846808829688
0.000842701569064
0.000837526308125
0.000831605000301
0.000825308908067
0.000819011299973
0.00081307436463
0.000807853727124
0.000803716279176
0.000801067038104
0.000800365053726
0.000802111555878
0.000806795266125
0.000814795633778
0.000826224795414
0.000840418516063
0.000851594792496
0.000850890821075
0.000849840118335
0.000848322306046
0.000846320769082
0.000843913053092
0.000841244493478
0.000838511141831
0.000835949037031
0.000833828757298
0.00083245782766
0.000832189019823
0.00083341927832
0.000836564171356
0.000841997986638
0.000849959171944
0.000860419805432
0.000872668242155
0.000851661764721
0.000851224634059
0.000850769304786
0.000850245099425
0.000849627615842
0.000848931215088
0.000848207519208
0.000847548338768
0.000847088055261
0.000847003329667
0.000847513209834
0.000848879167985
0.000851395522921
0.000855360016328
0.000861020666828
0.0008684999884
0.000877704158043
0.000888004316693
0.000851674815458
0.000851290811883
0.000850976503476
0.000850728855573
0.000850550689229
0.00085046040393
0.000850492997862
0.000850705560893
0.000851183622782
0.000852044146358
0.000853435918766
0.000855536884385
0.000858542998553
0.000862642916512
0.000867978229818
0.000874591019097
0.000882366618089
0.000890806026233
0.000851678709146
0.000851298665912
0.000850998097885
0.000850790409903
0.00085069159764
0.000850727391553
0.000850933413101
0.000851357929239
0.000852066395048
0.000853143777028
0.000854693927026
0.000856835575382
0.000859692314752
0.000863374006241
0.000867950722947
0.000873421023258
0.000879679220265
0.000886358235396
0.000851682970653
0.000851300643447
0.000850989547485
0.000850766069098
0.000850648208313
0.00085066138447
0.000850838746096
0.000851221957413
0.000851863330373
0.00085282662148
0.000854185313096
0.000856018194679
0.000858401313653
0.000861395594164
0.000865031417464
0.000869291516861
0.000874093729764
0.000879183250714
0.0008516887032
0.000851305677224
0.000850983128883
0.000850736425024
0.00085058191811
0.000850541289405
0.000850642241572
0.000850918482657
0.000851410287948
0.000852164246948
0.000853231233446
0.000854662497569
0.000856503859426
0.000858788068846
0.000861526445135
0.000864700403729
0.000868252895306
0.000872013826135
0.000851695267642
0.000851313445777
0.00085098204323
0.000850714192001
0.00085052380467
0.00085042840689
0.000850449905745
0.000850614343801
0.000850951638805
0.000851494835465
0.000852278276766
0.000853334665998
0.000854691234891
0.000856365354264
0.000858360295347
0.000860661293938
0.000863231484499
0.000865959836677
0.000851701442109
0.000851321615667
0.000850983739318
0.000850698334158
0.00085047677825
0.000850332923662
0.000850283691763
0.000850348776726
0.000850550065455
0.000850910746726
0.000851453854153
0.000852200249338
0.00085316626036
0.000854361277024
0.000855785728515
0.000857429303586
0.000859269215076
0.000861233808202
0.000851705578239
0.000851326863299
0.000850983690923
0.000850684088873
0.00085043707036
0.000850253487677
0.000850146365364
0.000850130573815
0.000850222205926
0.000850437735667
0.00085079291131
0.000851301410913
0.000851973429664
0.000852814379371
0.000853823959484
0.00085499533731
0.000856314653174
0.000857735848058
0.000851706127049
0.000851325877485
0.000850977038839
0.000850665767219
0.000850399268234
0.000850186287207
0.000850037158557
0.00084996347339
0.0008499774926
0.000850091452605
0.000850316684598
0.000850662715112
0.000851136359243
0.00085174100997
0.000852476176977
0.00085333710946
0.000854314907825
0.000855378803173
0.000851703479968
0.000851319223882
0.000850964075403
0.000850643027801
0.000850362253207
0.000850129294728
0.000849952888256
0.000849842593563
0.00084980834622
0.000849859795568
0.000850005618703
0.000850252822493
0.000850606191483
0.00085106780817
0.000851636883291
0.000852309529349
0.00085307925593
0.00085392380669
0.000851699350592
0.000851310031623
0.000850948371849
0.000850618708457
0.00085032681598
0.000850079636147
0.000849884861257
0.000849750697565
0.000849685437614
0.000849696859926
0.000849791617825
0.000849974769219
0.000850249369902
0.000850616209895
0.000851073732225
0.000851617981433
0.000852243260006
0.000852932161762
0.000851694942093
0.000851300379911
0.000850931989024
0.000850593693063
0.000850291063611
0.000850030080919
0.000849816809397
0.000849657468957
0.00084955800706
0.000849523483181
0.000849557681039
0.000849662858811
0.000849839527496
0.000850086332955
0.00085040011903
0.0008507759883
0.000851208207042
0.000851683382435
0.000851690880064
0.000851290926902
0.000850913245316
0.000850559272085
0.000850231238185
0.000849929803436
0.000849654823317
0.00084940626011
0.000849183926213
0.000848987156207
0.000848814816987
0.000848665281788
0.000848536329974
0.000848425057369
0.000848327976827
0.000848241041824
0.000848160926565
0.000848083779652
0.000851685687248
0.000851270143672
0.000850849477085
0.000850405534974
0.000849919192663
0.000849370402457
0.000848742738653
0.000848025156319
0.00084721131708
0.000846298971159
0.000845289448409
0.000844186808011
0.000842996889993
0.000841726562139
0.000840383211429
0.00083897439222
0.000837509636187
0.000836011313234
0.00085165391452
0.000851101390448
0.000850342540822
0.000849280556221
0.000847845643928
0.000845999922465
0.000843739934175
0.000841087681361
0.000838080352823
0.000834763333828
0.000831185238784
0.00082739413377
0.000823435143043
0.000819349214543
0.000815172680936
0.000810937340071
0.000806674269231
0.000802445822162
0.000851337519903
0.00084968894805
0.000846781293415
0.000842507394839
0.000836948818928
0.000830301942935
0.000822810145417
0.0008147104263
0.000806209253624
0.000797476379291
0.000788645799615
0.000779819967403
0.000771075284451
0.000762467489566
0.000754036351996
0.000745809627672
0.00073781080389
0.000730114567538
0.000848708901042
0.00084046074823
0.00082784944556
0.000812268394067
0.000795017932711
0.000777127426688
0.00075929118453
0.000741923197111
0.000725248648204
0.00070937377512
0.00069433218431
0.000680115325776
0.000666691789087
0.000654018995075
0.000642050120612
0.000630738126867
0.000620042458236
0.000609990143199
0.000831242818142
0.000795321552334
0.000755589314298
0.000717474939733
0.00068272323135
0.000651749257402
0.000624328166164
0.000600025896873
0.000578394671247
0.00055903193732
0.000541594198831
0.000525796010846
0.000511403009352
0.000498223371829
0.000486099900368
0.0004749032012
0.000464528985427
0.000454938817733
0.000743732413879
0.000647548033277
0.000577002956498
0.000524627760399
0.000484369066005
0.000452619426027
0.000426941247817
0.000405703055137
0.000387806721306
0.000372489962934
0.000359208172457
0.000347563377511
0.000337258819055
0.0003280689267
0.000319819196288
0.000312372343033
0.000305619867563
0.000299493866368
0.000473116255896
0.000369442379297
0.000314657796858
0.000279989934761
0.000256061104285
0.000238860943002
0.000226059443541
0.000216265004738
0.000208606620221
0.000202512177095
0.000197591380676
0.000193569673034
0.000190248798494
0.000187482286108
0.000185159706358
0.000183196510816
0.000181526825309
0.000180100368943
8.14010655597e-05
7.89273783021e-05
7.63719302144e-05
7.38403717687e-05
7.14213099584e-05
6.91641333788e-05
6.70931413277e-05
6.52159557421e-05
6.35301380937e-05
6.20276535116e-05
6.06975355123e-05
5.95274700033e-05
5.85047467543e-05
5.76168217883e-05
5.6851635223e-05
5.61977853469e-05
5.56445996114e-05
5.51825183468e-05
5.88293178176e-05
0.00014493572947
0.000211264606572
3.09661158765e-05
3.09411169432e-05
3.35233817988e-05
4.37759270431e-05
4.86376644436e-05
5.0391801343e-05
5.16646892693e-05
5.28288173029e-05
5.38701752818e-05
5.47836244172e-05
5.55792015794e-05
5.62702083916e-05
5.68710101591e-05
5.73938774646e-05
5.78487762926e-05
5.8243457687e-05
5.85843071358e-05
5.88764811073e-05
5.91244847026e-05
5.93321882201e-05
5.95031333022e-05
5.96405029249e-05
5.97472570185e-05
5.98261018927e-05
5.98795427152e-05
5.990987487e-05
5.99192093822e-05
5.99094792209e-05
5.98824796277e-05
5.98397857648e-05
5.97828034058e-05
5.97128735256e-05
5.96312227716e-05
5.95389804849e-05
5.94371527385e-05
5.93266800386e-05
5.92084025916e-05
5.90831114567e-05
5.89515113439e-05
5.88142695926e-05
5.86719831022e-05
5.85252222202e-05
5.83744905129e-05
5.82202718229e-05
5.8062986002e-05
5.7903042651e-05
5.77407949388e-05
5.75765892664e-05
5.74107215706e-05
5.72434816405e-05
5.70751184486e-05
5.6905872662e-05
5.67359496941e-05
5.65655446379e-05
5.6394827362e-05
5.62239560335e-05
5.60530692962e-05
5.58822923879e-05
5.57117332987e-05
5.55414874385e-05
5.5371634657e-05
5.52022416154e-05
5.50333593644e-05
5.48650242566e-05
5.46972544004e-05
5.45300498175e-05
5.43633866718e-05
5.41972171009e-05
5.40314587405e-05
5.38659943819e-05
5.37006532681e-05
5.3535209545e-05
5.33693483602e-05
5.32026605727e-05
5.30345803755e-05
5.28643670829e-05
5.26909848313e-05
5.2513024266e-05
5.23323011041e-05
5.21447922357e-05
5.19489039745e-05
5.17372091265e-05
5.15048605289e-05
5.12282511049e-05
5.09110423003e-05
5.04034628606e-05
2.39174547046e-05
0.000110972781298
0.000287494862277
0.000168551692053
0.000216144418743
0.000238882301239
0.000234970444763
0.000243548526643
0.000257450759473
0.000281944006422
0.000301595316054
0.000315987708528
0.000327156060911
0.000336290839877
0.000343906557888
0.000350276734682
0.000355587778092
0.000359981965282
0.000363572588732
0.000366452102965
0.000368697269679
0.000370372888799
0.000371534894656
0.000372232342374
0.000372509090337
0.000372404769897
0.00037195552335
0.000371194427662
0.000370151755985
0.000368855308453
0.000367330438543
0.000365600512148
0.000363686674333
0.000361608561764
0.000359383800009
0.000357028616742
0.000354558023632
0.000351985536581
0.000349323396316
0.000346582840256
0.000343774175891
0.000340906851692
0.000337989500381
0.000335030011797
0.000332035571035
0.000329012725336
0.000325967418044
0.000322905051796
0.000319830514269
0.000316748236263
0.000313662212378
0.000310576055932
0.000307493013579
0.000304416015581
0.000301347672528
0.000298290358779
0.000295246165033
0.000292216937692
0.000289204301348
0.000286209697746
0.00028323439532
0.000280279511166
0.000277346016735
0.000274434753554
0.000271546436137
0.000268681667653
0.000265840935929
0.000263024631839
0.000260233044247
0.000257466365778
0.000254724677446
0.000252007964415
0.000249316085117
0.000246648797818
0.000244005691044
0.000241386235986
0.000238789650868
0.000236214997199
0.00023366089712
0.000231125742176
0.000228607079737
0.000226102167179
0.000223606079901
0.000221111934316
0.000218498162965
0.000215794642768
0.00021298251603
0.000209959648679
0.000206550197947
0.000202654555689
0.000196961130155
0.00018880571359
2.71172582437e-05
0.000108975531394
0.000240466073877
0.00012943653909
0.000162661533725
0.000202258474371
0.000240118762699
0.000277085780981
0.00030951871177
0.000335917233603
0.000359633490731
0.000381760018807
0.000403599490667
0.000424127067961
0.000442799018994
0.000459663250829
0.000474861380236
0.000488504632354
0.000500699155438
0.00051155760402
0.000521193288194
0.000529713588021
0.000537216284662
0.000543788631939
0.000549508047776
0.000554443559412
0.000558657237876
0.000562205492677
0.000565139974532
0.000567508247157
0.000569354212746
0.000570718450515
0.00057163849456
0.000572149049472
0.000572282256181
0.000572067824908
0.000571533311858
0.000570704250386
0.000569604234021
0.000568255078866
0.000566676824656
0.000564888237548
0.000562906698943
0.000560748301454
0.000558427952373
0.00055595947166
0.000553355664998
0.000550628397702
0.000547788652254
0.000544846589011
0.000541811600564
0.000538692365618
0.00053549689892
0.000532232603167
0.000528906306625
0.000525524315991
0.000522092425216
0.000518616009028
0.000515099951794
0.000511548746506
0.00050796653278
0.000504357123034
0.000500724025136
0.000497070461318
0.000493399382384
0.000489713487928
0.000486015237934
0.000482306874912
0.000478590428352
0.000474867732907
0.000471140430566
0.000467409977353
0.000463677616159
0.00045994441791
0.000456211219656
0.000452478681477
0.000448747162554
0.000445016813041
0.000441287351236
0.000437558227889
0.000433828218953
0.000430095685206
0.000426357853059
0.000422611233927
0.000418850283774
0.000415068093214
0.000411250446872
0.000407311959317
0.000403189552175
0.000398862602336
0.000394201022816
0.000388978385648
0.000382903662855
0.000374603666098
0.00036281388939
3.36885171811e-05
0.000125570782556
4.94884585543e-05
7.44927292766e-05
0.000117144338567
0.000156378751911
0.000191010396503
0.000224689228548
0.000258056370209
0.000290978546761
0.000322366970328
0.000351862836416
0.000379399594288
0.000405174166534
0.000429352800576
0.000452182202163
0.000473744508899
0.000494033021684
0.000513047700229
0.00053078147764
0.000547226405756
0.000562397309707
0.00057633472962
0.000589097004315
0.000600751428743
0.000611367748449
0.000621014173715
0.000629755470214
0.000637652317704
0.000644761344201
0.00065113538905
0.000656823813806
0.000661872745795
0.000666325290201
0.000670221694508
0.000673599526316
0.000676493819326
0.000678937251896
0.000680960281119
0.000682591318439
0.000683856878693
0.000684781696943
0.000685388732269
0.000685699463681
0.000685733843763
0.000685510461148
0.000685046654978
0.000684358594084
0.000683461384473
0.000682369126308
0.000681094982435
0.000679651233667
0.000678049338969
0.000676299985053
0.000674413137518
0.000672398084198
0.000670263483965
0.00066801739987
0.000665667346754
0.000663220303902
0.000660682782425
0.000658060788553
0.000655359950281
0.000652585489497
0.000649742257144
0.000646834758933
0.000643867180284
0.000640843401961
0.000637767022883
0.000634641371727
0.000631469532951
0.000628254345437
0.000624998438839
0.000621704197723
0.000618373808473
0.000615009235176
0.000611612251776
0.000608184380421
0.000604726947856
0.000601240962785
0.000597727216529
0.000594186043965
0.000590617529023
0.000587021058791
0.000583395687313
0.000579739274735
0.000576049239203
0.000572320798364
0.000568548856138
0.000564722356249
0.000560803300452
0.000556702311898
0.00055238800726
0.000547766240243
0.000542658045494
0.000536807768243
0.000529232472181
0.000519120984175
4.03421858574e-05
0.00014763846162
5.38262599585e-05
7.30075460603e-05
0.000106040099106
0.000135043560184
0.00016459428926
0.000193632044179
0.00022205186336
0.000249876558389
0.000277124119073
0.00030387255187
0.000330110639525
0.000355438996336
0.000379798711934
0.000403272463057
0.000425917340394
0.000447745198119
0.000468763703956
0.000488982863239
0.000508396117091
0.000526983074605
0.000544709805556
0.000561538201389
0.000577441082888
0.0005924089267
0.000606449261385
0.000619582770617
0.000631838946577
0.000643252431052
0.000653860471382
0.000663701273536
0.000672813036049
0.000681233341775
0.000688998823212
0.000696144903342
0.000702705668078
0.000708713737746
0.000714200241742
0.000719194766298
0.000723725390312
0.000727818680315
0.000731499763012
0.000734792359173
0.000737718864379
0.000740300307509
0.000742556493464
0.000744506029719
0.000746166419096
0.000747554103039
0.000748684527746
0.000749572227681
0.000750230848075
0.000750673211611
0.000750911384002
0.000750956715498
0.000750819881228
0.000750510914397
0.000750039242369
0.00074941372089
0.000748642665748
0.000747733881974
0.00074669469634
0.00074553197106
0.000744252177793
0.000742861348522
0.00074136512746
0.000739768801337
0.000738077325027
0.00073629534319
0.000734427206705
0.000732476990841
0.000730448506808
0.000728345324418
0.000726170773576
0.000723927974455
0.000721619812734
0.000719248991608
0.000716818004668
0.000714329167738
0.000711784577497
0.000709186166287
0.000706535615232
0.000703834443938
0.000701083819823
0.000698284792345
0.000695437929717
0.000692543683728
0.000689601713349
0.000686611674021
0.00068357192629
0.000680481668864
0.000677339466162
0.000674129857745
0.000670777511088
0.000667258639314
0.000663527640232
0.000659480917302
0.000654965837586
0.000649388123581
0.000642391412024
4.66057930295e-05
0.000169438938511
5.79052932754e-05
7.4079288846e-05
0.000101871473175
0.000126700902645
0.000152261255268
0.000177613608931
0.00020227627573
0.000226425186886
0.000249800508119
0.000272413138992
0.000294423322559
0.000315903347749
0.000336914754131
0.000357427223217
0.00037731724116
0.000396580034892
0.000415294948741
0.000433542718519
0.000451375171655
0.000468817532602
0.00048588012868
0.000502559924171
0.000518840153091
0.000534690441975
0.000550071793653
0.000564944765035
0.000579275803612
0.000593040165793
0.000606222319617
0.000618814945173
0.000630817453035
0.000642234512578
0.000653074814591
0.000663350067053
0.000673074228965
0.000682262904157
0.000690932876049
0.000699101725372
0.00070678752649
0.000714008593338
0.000720783272921
0.000727129776213
0.000733066041178
0.000738609631196
0.000743777655232
0.000748586713714
0.000753052817424
0.000757191367945
0.000761017150828
0.000764544352386
0.000767786540994
0.000770756694484
0.000773467166671
0.000775929767211
0.000778155767261
0.000780155914868
0.000781940453371
0.000783519136163
0.000784901241737
0.000786095592898
0.000787110575406
0.000787954157767
0.00078863390494
0.00078915700289
0.000789530260206
0.000789760149819
0.000789852798492
0.000789814005737
0.000789649255937
0.000789363738952
0.000788962367099
0.00078844979018
0.000787830408545
0.000787108384468
0.000786287657915
0.000785371956622
0.000784364809317
0.000783269560831
0.000782089371176
0.000780827217737
0.000779485935297
0.000778068199423
0.000776576579909
0.000775013495953
0.000773381295974
0.000771682140776
0.000769918263168
0.000768091707881
0.000766204681905
0.000764259172359
0.000762257707162
0.000760202738371
0.000758099145731
0.000755964963426
0.00075376469766
0.000751471212297
0.000749078919549
0.000746582823992
0.000743944041834
0.000741100924168
0.000737723068382
0.000733689785435
5.22917577871e-05
0.000189798825542
6.15354851729e-05
7.61015915289e-05
0.000100720593662
0.000122688476715
0.000145389145855
0.000168064040584
0.000190111375133
0.000211634954484
0.000232329961449
0.000252139448172
0.000271183966647
0.000289490853598
0.000307144771745
0.00032422284394
0.000340781773963
0.000356864477572
0.000372478555578
0.000387612581355
0.000402295459186
0.000416594772839
0.000430587014513
0.000444338125555
0.000457898197406
0.000471302846195
0.000484574556539
0.000497722874091
0.00051074421142
0.000523623761342
0.000536339212877
0.000548864672309
0.000561173604684
0.00057324075267
0.000585043201753
0.000596560863323
0.00060777661499
0.000618676257427
0.000629248371002
0.000639484147455
0.000649377192458
0.000658923346991
0.000668120479935
0.000676968304705
0.000685468161504
0.00069362282959
0.000701436310808
0.000708913653479
0.000716060759843
0.000722884238941
0.000729391247769
0.000735589361779
0.000741486445256
0.000747090571799
0.000752409949969
0.00075745285599
0.000762227580813
0.000766742353732
0.000771005358481
0.000775024683349
0.00077880829008
0.000782363997793
0.000785699459687
0.000788822150047
0.000791739352972
0.000794458156211
0.000796985445704
0.000799327899348
0.000801491986892
0.000803483962107
0.000805309865742
0.000806975524009
0.000808486548072
0.000809848335169
0.000811066070044
0.000812144731757
0.000813089097624
0.000813903748977
0.00081459307574
0.000815161286196
0.000815612417003
0.00081595034216
0.00081617878084
0.000816301308915
0.000816321367589
0.000816242306256
0.000816067389742
0.000815799852079
0.000815442875035
0.000814999691295
0.000814473535568
0.000813867925894
0.000813186450792
0.000812433163531
0.000811612502106
0.000810730027781
0.000809792363951
0.00080881092444
0.000807807930357
0.000806748544912
0.000805641817477
0.000804502364653
0.000803352349996
0.000802198789244
0.000801041034054
0.000799701701825
0.000798146882333
5.34096915891e-05
0.000169550183377
5.29955595501e-05
6.64047653114e-05
7.9790320608e-05
0.000101849857554
0.000121430583677
0.000141735176931
0.000162147361448
0.000182031141329
0.000201407962001
0.000219955509543
0.000237565260673
0.000254321947138
0.000270249383066
0.000285430529073
0.000299946188601
0.000313852368902
0.000327205961101
0.000340058818889
0.000352458041362
0.000364445306687
0.000376050021476
0.000387298036621
0.000398227769667
0.00040889430522
0.000419356843828
0.000429671695139
0.00043988852281
0.000450049138554
0.000460187471426
0.000470329239883
0.000480491514998
0.000490682884047
0.000500904516787
0.000511151565015
0.000521414521519
0.000531680377889
0.00054193357974
0.000552156795444
0.0005623315578
0.000572438797913
0.000582459317382
0.000592374191777
0.00060216513338
0.00061181479152
0.000621307004915
0.000630626985532
0.000639761446957
0.000648698669449
0.00065742851664
0.000665942408045
0.000674233260351
0.000682295406027
0.000690124494123
0.0006977173806
0.000705072011997
0.00071218732085
0.000719063124929
0.000725700036591
0.000732099361141
0.0007382630369
0.000744193514889
0.000749893704552
0.000755366917039
0.000760616807698
0.000765647321077
0.000770462641843
0.000775067150286
0.000779465382353
0.000783661993851
0.000787661726523
0.000791469378764
0.000795089777636
0.000798527751875
0.00080178811308
0.000804875636157
0.000807795045067
0.000810550995653
0.000813148064942
0.000815590740088
0.000817883407031
0.000820030343183
0.000822035718331
0.000823903601732
0.000825637966286
0.000827242675921
0.000828721507706
0.000830078183364
0.000831316429325
0.000832439998397
0.000833452702704
0.000834358356448
0.0008351610019
0.000835864921579
0.000836474918189
0.000836995937525
0.00083743376393
0.000837795276474
0.000838088915353
0.000838326257281
0.000838531832621
0.000838694632872
0.000838828361663
0.000838953193416
0.000839097318208
0.000839300636257
0.000839598131234
0.000840023860844
0.000840480975362
0.000840951231892
6.58177887211e-05
5.09962361289e-05
6.7890032313e-05
7.79120514829e-05
9.35274787617e-05
0.000106652906192
0.000122050108599
0.000139584032963
0.000157938885029
0.000175976114905
0.000193600610719
0.000210444369571
0.000226339594287
0.000241327957306
0.000255435434442
0.000268746080164
0.000281342040876
0.000293286921902
0.000304641372449
0.000315466765902
0.000325815692684
0.000335738681015
0.000345282523291
0.000354489355593
0.000363395781786
0.000372033747934
0.00038043309702
0.000388627924499
0.000396657964641
0.000404565069493
0.000412389938336
0.000420170330105
0.000427940131007
0.00043572917435
0.00044356301977
0.000451462743093
0.000459444845233
0.000467521481789
0.00047570082088
0.000483987404997
0.000492382465342
0.000500884169089
0.000509487849008
0.000518186215342
0.000526969592072
0.000535826180426
0.00054474235684
0.000553703008915
0.000562691883815
0.000571691958087
0.000580685783453
0.000589655829544
0.000598584772968
0.000607455767352
0.000616252647117
0.000624960108704
0.000633563827694
0.000642050556406
0.000650408166894
0.000658625681441
0.000666693267232
0.000674602226772
0.000682344965304
0.000689914950255
0.000697306663964
0.000704515548224
0.000711537940973
0.000718371017937
0.000725012729677
0.000731461743337
0.000737717382395
0.000743779569909
0.000749648771729
0.000755325942726
0.000760812473626
0.000766110141204
0.000771221059054
0.000776147631991
0.000780892512643
0.00078545856468
0.000789848826916
0.00079406647769
0.00079811480369
0.000801997172212
0.000805716990298
0.00080927768484
0.000812682700055
0.000815935510107
0.000819039605989
0.000821998425252
0.000824815421938
0.000827494166517
0.000830038422456
0.000832452155035
0.000834739447499
0.000836904308317
0.000838951350824
0.000840885804055
0.000842713639272
0.000844440658952
0.000846074291971
0.000847624076976
0.000849103694303
0.000850528559516
0.000851904421956
0.000853247320013
0.000854578368281
0.000855925978463
0.000857327820335
0.000858834197241
0.000860494695515
0.00086236027728
0.000864372963913
0.000866504024702
6.6479815051e-05
4.87200743209e-05
5.97278774959e-05
7.44833010054e-05
8.49286182382e-05
9.98291911596e-05
0.000115347016925
0.000131077841979
0.000146247340504
0.000160760516279
0.000175500299987
0.000190498310434
0.000205171586809
0.000219180211153
0.000232469434407
0.000244989970319
0.000256774176533
0.000267884051936
0.000278372385162
0.000288294402628
0.00029770665898
0.000306660455266
0.00031520574427
0.000323391338253
0.000331260924791
0.00033885389937
0.000346205892428
0.00035334819881
0.000360308545792
0.000367111918247
0.000373781591142
0.000380341523916
0.000386816918421
0.000393233260021
0.00039961511554
0.000405985341161
0.000412364744376
0.00041877196365
0.000425223477174
0.000431733613392
0.000438314656514
0.000444977032121
0.000451729534937
0.000458579511613
0.000465532965178
0.000472594581281
0.000479767698203
0.000487054235324
0.000494454615454
0.000501967689433
0.000509590694251
0.00051731923994
0.000525147345339
0.000533067509264
0.000541070826474
0.000549147132191
0.000557285176333
0.000565472812926
0.000573697200683
0.000581945004819
0.00059020259371
0.000598456225478
0.000606692218546
0.000614897106187
0.000623057772006
0.00063116156838
0.000639196415089
0.000647150880152
0.000655014241651
0.000662776536577
0.000670428592495
0.000677962043967
0.000685369335741
0.000692643716839
0.000699779226928
0.000706770675011
0.000713613613
0.000720304302967
0.000726839680833
0.000733217316817
0.000739435371312
0.000745492552313
0.000751388067585
0.00075712158165
0.000762693169196
0.000768103262198
0.000773352613474
0.000778442250041
0.000783373382777
0.000788147402845
0.000792765927109
0.000797230834949
0.00080154419426
0.000805707965534
0.000809724428568
0.000813596413676
0.000817327258723
0.00082092067532
0.000824380381086
0.000827709504722
0.000830913358793
0.000833998048115
0.000836970156573
0.000839836623291
0.000842607188415
0.000845293204888
0.000847903692741
0.000850450630915
0.00085294969827
0.000855420932425
0.000857890103695
0.000860390822828
0.000862966064039
0.00086567070215
0.000868559843434
0.000871690529329
0.000875021613976
0.000878509370948
7.98468336362e-05
5.65908148288e-05
7.53102496616e-05
8.40717205938e-05
9.55278279557e-05
0.000106692154155
0.000120056575434
0.000135167232884
0.000150644185416
0.000165605221382
0.000179795809963
0.000192946851856
0.00020527409351
0.000217094712593
0.00022849700199
0.000239407829278
0.000249808490876
0.000259713658538
0.000269132622478
0.00027809247014
0.000286631268336
0.000294787912947
0.000302603002173
0.000310118748954
0.000317372238934
0.00032439798099
0.000331227026627
0.000337886495472
0.000344400290731
0.000350789530124
0.000357072739397
0.000363265828594
0.000369382881502
0.000375436399738
0.000381438286607
0.000387400279921
0.00039333379244
0.000399249520039
0.000405157131296
0.000411065189524
0.000416981125482
0.000422911310409
0.000428861159138
0.000434835315691
0.000440837886128
0.000446872678095
0.000452943422426
0.000459053911366
0.000465208088495
0.000471410051286
0.000477664013121
0.000483974205048
0.000490344755699
0.000496779545705
0.000503282055987
0.000509855219098
0.000516501274885
0.000523221650435
0.000530016851498
0.00053688639175