/*--------------------------------*- C++ -*----------------------------------*\
| =========                 |                                                 |
| \\      /  F ield         | OpenFOAM: The Open Source CFD Toolbox           |
|  \\    /   O peration     | Version:  5.x                                   |
|   \\  /    A nd           | Web:      www.OpenFOAM.org                      |
|    \\/     M anipulation  |                                                 |
\*---------------------------------------------------------------------------*/
FoamFile
{
    version     2.0;
    format      ascii;
    class       volScalarField;
    location    "3000";
    object      p;
}
// * * * * * * * * * * * * * * * * * * * * * * * * * * * * * * * * * * * * * //

dimensions      [0 2 -2 0 0 0 0];

internalField   nonuniform List<scalar> 
10996
(
-14.2188289182
-17.0214909957
-18.11060327
-18.5134420002
-18.9201642139
-19.3691315249
-19.8428642577
-20.3776488363
-20.9859111297
-21.6971532162
-22.5200109437
-23.4427301099
-24.5084367987
-25.722139855
-27.0439069918
-28.5388750342
-30.1602351496
-32.2845556926
-18.1628771094
-18.64893338
-18.7497768499
-18.8267477278
-19.0830065491
-19.4524895494
-19.8891599189
-20.4008530895
-21.0007241298
-21.7076474336
-22.5303785245
-23.466097805
-24.5677365137
-25.8545679817
-27.3800524965
-29.1910351433
-31.3740475179
-34.2695755029
-18.0575470376
-18.0438787607
-18.2994989133
-18.595161823
-18.9449214754
-19.3620867902
-19.8258182993
-20.3513857812
-20.9600902629
-21.6685016822
-22.4912446902
-23.4399193056
-24.5608571583
-25.8910760844
-27.4804296132
-29.3645216869
-31.589089668
-34.1533918617
-17.891785469
-17.9981780997
-18.3570574167
-18.671153301
-18.9934743778
-19.3839796263
-19.8312857694
-20.3439283105
-20.9397983615
-21.6341483501
-22.4430081796
-23.3826338429
-24.4908668707
-25.8026115966
-27.3456896581
-29.1146488147
-31.0378755863
-32.9202329713
-17.9302335359
-18.0822978458
-18.3902696651
-18.6723702307
-18.9786725993
-19.3571590787
-19.7963109251
-20.2993603525
-20.8817942997
-21.5581771008
-22.3433815894
-23.2531064353
-24.3140156574
-25.5459350957
-26.9457177257
-28.4596435619
-29.9487962242
-31.1748778641
-17.9920725972
-18.1206179572
-18.3784419181
-18.6509227201
-18.9544597161
-19.3218604347
-19.7480318473
-20.2352216281
-20.7962973395
-21.4437471868
-22.1892198185
-23.0437916491
-24.0205028341
-25.1197932724
-26.3114422847
-27.5141067049
-28.5754103266
-29.2816984063
-18.0304029581
-18.1328060149
-18.3601535436
-18.6240261036
-18.9184440814
-19.2686238578
-19.6753205513
-20.139608177
-20.670527436
-21.2771096174
-21.9663239829
-22.7422518695
-23.6045135434
-24.5369010148
-25.4931699722
-26.3860966045
-27.0801683413
-27.4145600745
-18.0476633005
-18.1352061893
-18.3405755841
-18.5907943388
-18.8723660906
-19.2048229609
-19.5906878249
-20.0298263834
-20.5279765682
-21.0908731327
-21.7212958725
-22.4175041711
-23.1703791542
-23.9547155862
-24.7191001645
-25.381057526
-25.8268809055
-25.9392144133
-18.0529510177
-18.1305340986
-18.3163698818
-18.551983566
-18.8202791921
-19.1350692335
-19.4993225639
-19.9120565932
-20.3761651228
-20.8942972361
-21.4655027124
-22.0832523653
-22.7323955954
-23.3828244974
-23.983136004
-24.4600995707
-24.7228258446
-24.6882222659
-18.046597082
-18.1150343581
-18.2804857952
-18.4986641738
-18.7502167795
-19.0431944978
-19.3803619605
-19.7598745503
-20.1816962448
-20.645180382
-21.1457408041
-21.6727647396
-22.2071026026
-22.7172141613
-23.1562851932
-23.4644835978
-23.5748945472
-23.433659005
-18.0240653195
-18.0838008747
-18.2287183923
-18.4263890188
-18.6569091349
-18.9232855965
-19.2273255945
-19.5662114373
-19.9371597137
-20.3363940594
-20.7562724843
-21.1834091829
-21.5970616909
-21.9674156062
-22.2551971231
-22.415146592
-22.401859042
-22.1839019707
-17.9798029293
-18.031097321
-18.1553557291
-18.3292858536
-18.5340236481
-18.7685388969
-19.0330481148
-19.3237013757
-19.6354472
-19.9619515028
-20.2934998634
-20.6155786137
-20.9081749939
-21.1455922416
-21.2974742974
-21.3323148978
-21.2221157042
-20.9512278619
-17.9072873922
-17.9501421612
-18.053403808
-18.2004437355
-18.374473623
-18.5715899956
-18.7901664078
-19.0253892157
-19.2706481817
-19.5179716116
-19.756801561
-19.9731487995
-20.1495814032
-20.265892342
-20.3006061284
-20.2338190539
-20.0502864654
-19.7443888166
-17.7991035013
-17.833280199
-17.9149639424
-18.0322168155
-18.170823116
-18.3251994019
-18.4920742975
-18.6659253506
-18.8394359174
-19.0041158754
-19.1498261182
-19.2644526948
-19.334276743
-19.3449021705
-19.2826368009
-19.1364135457
-18.8994725049
-18.5718984492
-17.6474413444
-17.6725740849
-17.7319754094
-17.8170278927
-17.9162628335
-18.0234981182
-18.1343775897
-18.2431354886
-18.3426309796
-18.4249539981
-18.4814348386
-18.5026730134
-18.4790039535
-18.4013144503
-18.2620113706
-18.0561247578
-17.7819802656
-17.4424563449
-17.4451660346
-17.4609178646
-17.4975401527
-17.5489019454
-17.6063140403
-17.6638799401
-17.7169057874
-17.7599859452
-17.7869363293
-17.7912777268
-17.7664611377
-17.7060546463
-17.6041314924
-17.4558149858
-17.2578166908
-17.0089572326
-16.7102534569
-16.3656143436
-17.1877187739
-17.1938418605
-17.2077492412
-17.22535186
-17.2406769437
-17.2487463409
-17.2452508049
-17.2257332938
-17.1855280686
-17.1200660567
-17.0251241384
-16.897022292
-16.7328654424
-16.5308211437
-16.2903377785
-16.0123290416
-15.6989960617
-15.3543348613
-16.8984504676
-16.8960545609
-16.8901696228
-16.8783770112
-16.857101619
-16.8225372721
-16.771206815
-16.6999043426
-16.6055903398
-16.4855287796
-16.3374822526
-16.1598599883
-15.9518218807
-15.7133894149
-15.4454851061
-15.1499759373
-14.8294105316
-14.4874855174
-16.627404746
-16.619136378
-16.5991622172
-16.5662439029
-16.518530154
-16.4531714276
-16.3675883287
-16.2597503672
-16.1279488864
-15.9708260144
-15.7875497151
-15.5778926055
-15.3422552354
-15.0816700525
-14.7977838905
-14.4928334823
-14.169393629
-13.8308190591
-16.3968962041
-16.3850173333
-16.35611645
-16.3097001428
-16.2446924284
-16.1587925578
-16.0503190424
-15.9182511102
-15.7618212136
-15.5806382746
-15.3748405996
-15.1450841642
-14.8925002875
-14.6186841704
-14.3256362844
-14.0157331848
-13.6914772243
-13.3559556154
-16.2040693742
-16.1900956031
-16.1562042159
-16.1022319019
-16.0266109804
-15.9273257867
-15.8037721339
-15.6557373206
-15.4830542155
-15.2860388777
-15.0655574901
-14.822862694
-14.5595389875
-14.2775090032
-13.9789691959
-13.6663473423
-13.3420735127
-13.0090370475
-16.0439507183
-16.0287852677
-15.9932493069
-15.9367182944
-15.8551425431
-15.7472974929
-15.6141486306
-15.4558519675
-15.2724574023
-15.0648951873
-14.8346547308
-14.5834153538
-14.3130654211
-14.0257430886
-13.7237665679
-13.4095786046
-13.085548654
-12.7544218171
-15.9112957239
-15.8947167588
-15.8608226794
-15.8066587342
-15.7222635628
-15.6088707064
-15.4698514445
-15.3051828325
-15.1148463763
-14.9003480469
-14.6636770881
-14.4067986619
-14.1318181191
-13.8410457873
-13.5368874367
-13.2218009757
-12.8981134232
-12.5684856897
-15.8016907774
-15.782338072
-15.7528646889
-15.7050739848
-15.6202998626
-15.504202493
-15.3621931538
-15.1934928677
-14.9984146632
-14.7792507584
-14.5383325503
-14.2777583651
-13.9997842767
-13.7068446627
-13.4014009544
-13.0859086928
-12.7626608827
-12.4342269746
-15.7101738279
-15.6897013674
-15.6676008492
-15.6264329665
-15.5404711452
-15.4247009732
-15.2835034134
-15.1134792692
-14.9157861381
-14.6938642414
-14.4503445539
-14.1874531806
-13.9076184368
-13.6133912908
-13.3072724203
-12.9917104276
-12.6689856178
-12.3416131554
-15.6277898267
-15.6023025467
-15.6070056329
-15.5761526774
-15.4828394877
-15.3644914268
-15.2238822873
-15.0535904257
-14.8550970874
-14.6323771237
-14.388054165
-14.1244124099
-13.8440257561
-13.5495371618
-13.2434829005
-12.9283114383
-12.6062923648
-12.2797676312
-15.5758815706
-15.47520203
-15.5310118754
-15.5409557651
-15.4590100365
-15.3443315753
-15.2028517935
-15.0296112274
-14.8283834455
-14.6034650695
-14.3573309171
-14.0922759601
-13.8109010039
-13.5158194741
-13.2095259872
-12.8944224645
-12.5727970691
-12.2469371958
-15.6941740901
-15.4177038217
-15.3964365623
-15.3964844141
-15.343231811
-15.2610281331
-15.1397699517
-14.9791386044
-14.786671676
-14.5676909931
-14.3254761666
-14.0631105731
-13.7836988603
-13.4901406591
-13.1851142575
-12.8711341699
-12.5505639811
-12.2255427332
-15.9160748554
-16.027266407
-15.9160098218
-15.6881887971
-15.5199517847
-15.3776858965
-15.2160853363
-15.0297714304
-14.8214711877
-14.5921244509
-14.3427670693
-14.0753787149
-13.792350059
-13.4960968452
-13.1889955834
-12.8733678952
-12.5514556329
-12.2251324639
-12.2823509812
-14.3573401383
-15.2112878457
-15.3005856749
-15.2939554318
-15.243892834
-15.1322229934
-14.9751407741
-14.7852747424
-14.5679143773
-14.3267291819
-14.0652983434
-13.7868951458
-13.4944285489
-13.1905678097
-12.8778358076
-12.558562591
-12.2350989169
16.3646359948
16.4089890367
16.4694825302
16.5253279613
16.5831183605
16.645461896
16.7043846224
16.7611481937
16.8220016338
16.885245559
16.9470410156
17.0054709046
17.0597378467
17.1094940351
17.1546715969
17.1953664878
17.2317462473
17.2639986755
17.2923222815
17.3169256683
17.3380289181
17.3558664361
17.3706812702
17.3827185872
17.3922163909
17.3994034568
17.4044950482
17.407696834
17.4092002916
17.4091898685
17.4078331188
17.4052941688
17.4017381823
17.3972908571
17.3920676704
17.3861862702
17.379752358
17.3728591635
17.3655912147
17.3580248405
17.3502280822
17.3422605903
17.3341745171
17.326014521
17.3178185551
17.309617934
17.3014388171
17.293302386
17.2852263502
17.277224489
17.2693079666
17.2614846182
17.2537603555
17.2461386147
17.2386206703
17.2312054472
17.2238910365
17.216674085
17.2095502743
17.2025138478
17.1955583871
17.1886770154
17.1818634618
17.1751121284
17.1684191855
17.1617826631
17.1552037459
17.1486868992
17.1422420848
17.1358850375
17.1296407462
17.1235440944
17.1176457914
17.1120137207
17.1067430135
17.1019596239
17.0978378964
17.0946104126
17.0925959076
17.092241761
17.0941150904
17.0992501258
17.1080321509
17.1237564954
17.1479655975
17.1874258673
17.2460471795
17.3590995261
17.5112877584
16.2328354186
16.2717462847
16.3140984806
16.3639609427
16.4024217168
16.4490888822
16.5016688529
16.5567776464
16.6094397239
16.6643183251
16.7273177528
16.7920846782
16.8548372724
16.9148709757
16.9715900854
17.0245204138
17.0733941638
17.1181083375
17.158679119
17.1951961036
17.2277870795
17.2566068042
17.2818322383
17.3036615729
17.3223109294
17.3380072276
17.3509795253
17.3614516688
17.369639276
17.3757474228
17.3799723232
17.3824992509
17.3835055242
17.3831569527
17.3816113747
17.3790211604
17.3755117553
17.3712016327
17.3662097904
17.3606389188
17.3545803835
17.3481178012
17.3413270368
17.33427586
17.3270240938
17.3196240679
17.3121208956
17.3045529198
17.2969521851
17.2893454856
17.2817549881
17.2741992
17.2666929273
17.2592481923
17.2518737358
17.2445763882
17.2373610246
17.2302293753
17.2231813786
17.2162159636
17.2093307308
17.2025221084
17.1957851136
17.1891140482
17.1825027782
17.1759457585
17.1694380568
17.1629765853
17.1565599689
17.1501901233
17.1438718852
17.137616074
17.1314385126
17.1253652117
17.1194306934
17.1136870456
17.1082010157
17.1030695454
17.0984161013
17.0944175379
17.0913009899
17.0893894145
17.0891115114
17.0910683133
17.0961263093
17.1053661409
17.1204540334
17.1439736709
17.1820488954
17.2374433651
17.3365464314
17.4428246084
16.0718313682
16.1233312449
16.1746568272
16.2309820755
16.2626583801
16.3107578573
16.3656703026
16.4059184525
16.4471762845
16.4955215437
16.5477597602
16.6008685028
16.6560987032
16.7157893515
16.776574663
16.8358656905
16.8929392603
16.9472815052
16.9984422159
17.0460846241
17.0900035325
17.1301132296
17.1664193912
17.1989894208
17.2279384381
17.2534183589
17.2756103629
17.2947150454
17.3109438594
17.3245101823
17.3356241076
17.344489312
17.3513018582
17.3562501381
17.3595138288
17.3612644248
17.3616636397
17.3608641219
17.3590099915
17.3562329246
17.3526482743
17.3483615629
17.3434758194
17.3380843263
17.3322705606
17.326109706
17.3196688445
17.313007308
17.3061769212
17.2992225923
17.292182447
17.2850887089
17.2779683285
17.2708440071
17.2637346263
17.256655619
17.2496195641
17.2426351601
17.2357099076
17.2288502443
17.2220582659
17.2153344805
17.2086783016
17.2020878962
17.1955601382
17.1890904959
17.1826737322
17.1763041703
17.1699767497
17.1636868811
17.157431926
17.1512109616
17.1450261326
17.1388822977
17.1327904223
17.1267660056
17.1208349823
17.1150308769
17.1094054748
17.104023247
17.0989801481
17.0943946861
17.0904419004
17.0873375144
17.0854011645
17.0850310898
17.0868183314
17.0915305272
17.1002427535
17.1140180941
17.1356434985
17.1699546014
17.216818387
17.2939660572
17.350331819
15.8614992054
15.9383378374
16.0026664739
16.0727245983
16.1091389805
16.1598935008
16.2197259325
16.2678031055
16.3172724463
16.3673383323
16.4099409267
16.4528248791
16.4998492629
16.5498790038
16.6018010037
16.6560323005
16.7132054797
16.7715140412
16.8288814987
16.8841651411
16.936784573
16.9863786583
17.0326744243
17.075478276
17.1146854523
17.1502712926
17.1822780389
17.2108032248
17.2359874029
17.2580008001
17.2770317807
17.2932775605
17.3069376974
17.3182098699
17.3272876962
17.3343591683
17.3396059051
17.3432018249
17.3453127617
17.3460953358
17.3456971069
17.3442559935
17.3418990892
17.3387406913
17.334885626
17.3304333803
17.3254742405
17.3200892439
17.314351487
17.3083265196
17.3020722144
17.2956392225
17.2890715326
17.2824065883
17.2756761676
17.2689070098
17.2621217761
17.2553393039
17.248575304
17.2418421859
17.2351506443
17.2285073976
17.2219162008
17.2153806209
17.2089022097
17.2024807798
17.1961147723
17.18980116
17.1835355713
17.1773128859
17.1711276202
17.164974851
17.1588499301
17.1527502599
17.1466751263
17.1406263889
17.134608505
17.1286317014
17.1227105952
17.1168697195
17.1111408057
17.1055733047
17.1002282613
17.0951968039
17.090590659
17.0865758686
17.0833537939
17.0812251212
17.0805523277
17.0818757556
17.0858425389
17.0933425657
17.1052270519
17.123874837
17.1525019105
17.1886876464
17.2437507186
17.2652482429
15.5768241032
15.6883340025
15.767713807
15.8611121071
15.9045346847
15.9660131269
16.0460880736
16.1060759468
16.1629911465
16.2201597354
16.2699631474
16.3183438157
16.3665709018
16.41178711
16.4570401488
16.504515028
16.5541776675
16.605612179
16.6588405229
16.7138385272
16.7695337974
16.8245221508
16.8777705066
16.9286372178
16.9767078092
17.021691742
17.063385852
17.1016702572
17.1365022309
17.1679093116
17.1959768241
17.2208344216
17.2426397852
17.261567717
17.2778008569
17.2915254672
17.3029273844
17.3121906147
17.3194949451
17.3250149892
17.3289182805
17.3313647099
17.3325053676
17.3324825626
17.331429096
17.3294678096
17.3267109356
17.3232615035
17.3192152889
17.3146597145
17.3096736216
17.3043283453
17.2986883575
17.2928098632
17.2867424239
17.2805290371
17.2742067668
17.2678069243
17.261356332
17.2548774944
17.2483895039
17.2419080435
17.235445876
17.2290132637
17.2226174516
17.2162629084
17.2099534002
17.2036905314
17.1974743446
17.1913033391
17.1851746125
17.1790838539
17.1730260738
17.1669959153
17.1609884417
17.1549995051
17.1490261554
17.143066482
17.137122038
17.1311967956
17.125299774
17.1194441104
17.1136519456
17.1079522206
17.102390506
17.0970229362
17.0919325592
17.0872219442
17.0830419524
17.0795753583
17.0770908023
17.0759062069
17.0764712364
17.0793057268
17.0850491646
17.0945842986
17.1093268978
17.1311800833
17.1561440138
17.1913535117
17.186244927
15.2086291204
15.3642203221
15.4593748145
15.5761987641
15.6345832064
15.7112181857
15.8137582756
15.8923601714
15.9650299117
16.0378886364
16.098230734
16.1544795234
16.2101042793
16.2623101287
16.312590012
16.3616747947
16.4088634165
16.4557053543
16.5037618642
16.5534345077
16.604551488
16.6569597458
16.7103872863
16.7641033504
16.817148488
16.8686700476
16.918030986
16.9647881564
17.0086357084
17.0493658652
17.0868531563
17.1210485175
17.1519707047
17.1796947478
17.2043370392
17.2260415283
17.2449685173
17.2612874543
17.2751722372
17.2867982255
17.2963398817
17.3039687646
17.3098517337
17.3141494458
17.3170152861
17.3185946096
17.3190243542
17.3184325954
17.3169381537
17.3146503563
17.3116696921
17.3080887211
17.3039923006
17.299456314
17.294550751
17.2893391365
17.2838763973
17.2782109124
17.2723849858
17.2664352315
17.2603929461
17.2542849841
17.2481341061
17.2419595905
17.2357774216
17.2296006396
17.2234396059
17.2173020197
17.2111931195
17.2051167006
17.1990747105
17.1930675123
17.18709383
17.1811509027
17.1752345881
17.169340033
17.1634620136
17.157595587
17.151736412
17.1458812346
17.1400279021
17.1341770694
17.1283315742
17.1224986601
17.1166893978
17.1109228226
17.1052241244
17.0996335597
17.0942005441
17.0889975279
17.0841152358
17.0796845753
17.0758635797
17.0728804546
17.0709936749
17.0705394225
17.0719143765
17.0756188284
17.0823538152
17.0925499809
17.1071756477
17.1211422151
17.1389417528
17.1127669921
14.7347691066
14.9505052716
15.0640731316
15.2044271257
15.279213
15.3784731288
15.5084031004
15.610231032
15.7033184841
15.7966344164
15.8740421198
15.9445233656
16.0133495526
16.0766877223
16.136049794
16.1930424588
16.246991272
16.2985228498
16.3484150928
16.396934505
16.4451194494
16.4939633502
16.543791008
16.5946207375
16.6463107557
16.6985506712
16.7507872924
16.8023171072
16.8524502398
16.9006073371
16.9463506958
16.9893663559
17.0294400516
17.0664408406
17.100312488
17.1310627162
17.1587519271
17.1834794259
17.2053724192
17.224575678
17.2412454216
17.2555438953
17.2676364277
17.2776882274
17.285862469
17.2923181664
17.2972089346
17.300681826
17.302876668
17.3039255484
17.3039523138
17.3030722774
17.3013918841
17.2990091816
17.296014218
17.2924895127
17.2885105651
17.2841450558
17.279452658
17.2744883982
17.269300867
17.2639325236
17.2584199398
17.2527949234
17.2470845952
17.2413123956
17.2354979391
17.2296578899
17.2238056571
17.2179521832
17.2121056524
17.2062721186
17.2004557407
17.1946590388
17.1888827303
17.1831259138
17.1773860513
17.1716593108
17.1659410442
17.1602262198
17.1545098791
17.1487875014
17.1430554558
17.1373111656
17.1315540955
17.1257856706
17.1200109983
17.114238529
17.1084835292
17.1027658647
17.0971203328
17.0915879852
17.0862279787
17.0811162073
17.0763595859
17.0720836567
17.0684721868
17.0657015306
17.0640408876
17.0637698135
17.0652131318
17.0686833551
17.0740008222
17.0813400005
17.0849107125
17.0876528051
17.0449188377
13.992120344
14.2732248862
14.4407932491
14.5411907894
14.7339773046
14.837912889
14.9550426087
15.1155701707
15.2455572197
15.3633873246
15.479842808
15.5776335073
15.6670964533
15.7543048597
15.8344733228
15.908949948
15.9796292907
16.0452674664
16.1063451561
16.164166616
16.219139538
16.2717788325
16.3227344736
16.3725033379
16.4217866224
16.4712821475
16.5213407809
16.5720365973
16.6232475221
16.6746904462
16.7259243846
16.7764068178
16.8255791107
16.8729377625
16.9180715551
16.9606695585
17.0005121631
17.0374607197
17.0714471698
17.1024640391
17.1305526582
17.1557925106
17.1782911354
17.1981762122
17.2155889139
17.2306789493
17.2436004167
17.2545086809
17.2635578015
17.2708987369
17.2766779053
17.2810362652
17.2841084694
17.2860223162
17.2868980965
17.2868482183
17.2859768467
17.2843800717
17.2821462232
17.2793561985
17.2760840674
17.2723964926
17.268353668
17.2640102143
17.2594145254
17.2546092081
17.2496314641
17.2445138719
17.2392845447
17.2339678419
17.2285843891
17.2231517275
17.2176842223
17.2121936145
17.2066890564
17.2011775151
17.1956639747
17.1901516773
17.1846419471
17.1791344137
17.1736270234
17.1681163721
17.1625982196
17.1570677788
17.1515201709
17.1459506986
17.1403553188
17.1347308285
17.1290754319
17.1233888301
17.1176737099
17.1119352767
17.1061846234
17.1004342019
17.094713309
17.0890535159
17.0834976049
17.0781035039
17.072951309
17.068136208
17.0637869051
17.0600166777
17.057019597
17.0549288477
17.0538445484
17.0537847763
17.0541021693
17.054318254
17.0482782291
17.0380866637
16.9823680308
13.4158495303
13.631799255
13.7697676889
14.0005826654
14.1272883521
14.2715049797
14.4638804787
14.6547205219
14.7944036342
14.9322851354
15.0760121435
15.1975895895
15.3089867073
15.4178499324
15.5183839178
15.611908881
15.700350922
15.7824248448
15.8583360626
15.929371285
15.9958868837
16.0583625821
16.117616503
16.1741514164
16.2284279598
16.2809669562
16.3322985702
16.3829696985
16.4335026561
16.4842087663
16.5351782017
16.5863272224
16.637430969
16.6881443289
16.7380461086
16.7866893057
16.8336511144
16.8785648742
16.9211372841
16.9611507818
16.9984595509
17.0329822562
17.0646936672
17.0936144686
17.1198024978
17.143343899
17.1643466552
17.1829340864
17.1992402141
17.2134051074
17.225571763
17.2358832405
17.2444809482
17.2515031528
17.2570840218
17.2613527367
17.2644326874
17.2664408262
17.2674869426
17.2676734337
17.2670949762
17.2658390053
17.2639856762
17.2616087232
17.2587749276
17.2555449747
17.2519736062
17.2481100228
17.2439977268
17.2396754006
17.2351769122
17.2305320783
17.2257665945
17.2209027458
17.2159593113
17.2109521738
17.2058942521
17.2007961228
17.1956659327
17.1905098866
17.1853321682
17.1801350259
17.1749188401
17.169682328
17.1644226788
17.1591362841
17.1538186848
17.1484652066
17.1430709706
17.1376315695
17.132143038
17.1266022701
17.1210070232
17.1153572113
17.1096547203
17.1039049145
17.0981184048
17.0923095768
17.0865016577
17.0807180074
17.0749987399
17.0693980432
17.0639769476
17.05880671
17.0539447353
17.0494691577
17.0453936084
17.0416198383
17.0379029049
17.033223501
17.0266146808
17.0118200843
16.9905256088
16.924630202
12.4274775399
12.6736087694
12.8727163929
13.0482789304
13.3277025629
13.4633495963
13.6670865379
13.8892503617
14.0669677189
14.2415856711
14.4258986404
14.5896074213
14.7237734239
14.8563467511
14.9902450182
15.1140735583
15.2298312864
15.3397385539
15.4420115029
15.53675847
15.6253027844
15.7080534789
15.7853740293
15.8580260182
15.9264824719
15.9911602667
16.0525937903
16.1113007589
16.1677402447
16.2223952596
16.2757455006
16.3282466694
16.3802980685
16.4321630288
16.483938406
16.5355772285
16.5869107474
16.6376753018
16.687544264
16.7361647562
16.7831897699
16.828304867
16.8712450872
16.9118037318
16.9498335949
16.9852444721
17.017996633
17.0480935889
17.075573913
17.1005044023
17.1229736442
17.1430867782
17.160960597
17.1767195679
17.1904923952
17.2024095197
17.2126011613
17.2211959957
17.2283200108
17.2340956239
17.238640734
17.2420679702
17.244483889
17.2459885509
17.2466751264
17.2466300886
17.245933265
17.2446583258
17.2428725575
17.2406372811
17.2380081701
17.2350355767
17.2317646407
17.228235813
17.224485015
17.2205440469
17.2164407114
17.2121992302
17.2078403618
17.2033817777
17.1988382539
17.1942220654
17.1895430399
17.184808893
17.1800251379
17.175195202
17.1703206156
17.1654010375
17.1604345661
17.1554184088
17.150348627
17.1452208062
17.14002996
17.1347713868
17.1294404005
17.1240323857
17.1185430338
17.1129691932
17.1073088947
17.1015618303
17.095735536
17.0898285946
17.0838547003
17.0778249616
17.0717542082
17.0656642651
17.0595776667
17.0535140954
17.0474678545
17.0414130953
17.0352453468
17.0286905061
17.0212719995
17.0116918607
16.998639698
16.9759494565
16.9450985716
16.8712560405
11.5777975255
11.8666378195
12.018139565
12.3138455265
12.4783916847
12.7181694395
12.9734151308
13.2200969389
13.404755492
13.6008287776
13.7995135777
13.9778681529
14.1461141503
14.3143191448
14.4740572485
14.6181751306
14.7560683006
14.8891927858
15.0138008808
15.1299587785
15.2390771404
15.3414359719
15.4373136351
15.5274054483
15.6121464682
15.6918730348
15.7670595626
15.8381598674
15.905616676
15.9699022403
16.0314729578
16.0907689711
16.1482061278
16.2041943146
16.2591123772
16.3132780356
16.3669133407
16.4201166775
16.4728712855
16.52506013
16.5764892126
16.6269105322
16.6760489962
16.7236247666
16.7693740496
16.8130651785
16.854509164
16.8935652534
16.9301411088
16.964189195
16.9957013184
17.0247019628
17.0512424759
17.0753952795
17.0972493457
17.1169056966
17.1344739282
17.1500689838
17.1638088229
17.1758125104
17.1861988044
17.1950850572
17.2025861393
17.2088136426
17.2138748619
17.21787223
17.2209024986
17.223056582
17.2244192879
17.2250695992
17.2250805823
17.2245196092
17.223448214
17.221922881
17.2199948821
17.2177110353
17.2151134642
17.2122403363
17.2091254531
17.2057990576
17.2022874242
17.1986137008
17.1947975772
17.1908561025
17.1868035075
17.1826516514
17.1784100117
17.1740857362
17.1696836858
17.1652069226
17.1606561398
17.1560307034
17.1513289092
17.1465475115
17.14168242
17.1367285381
17.1316809732
17.1265347781
17.12128359
17.1159208203
17.110440071
17.1048346155
17.0990989047
17.0932305313
17.0872211065
17.0810681786
17.0747725567
17.0683254616
17.0617190815
17.0549265605
17.04791568
17.040617689
17.0329154101
17.0245906027
17.0152155101
17.0041196281
16.989807514
16.9707394595
16.9409771791
16.9018691913
16.8218627002
10.3609611725
10.6630396146
10.8950285939
11.0931314781
11.4449591718
11.624004392
11.881925467
12.1743899233
12.4091245501
12.6420179743
12.8827388528
13.1023274585
13.2890572221
13.4783414815
13.6684418547
13.8488122115
14.0210138537
14.1885115021
14.3473531275
14.4942411041
14.6320653795
14.7631455241
14.8872037839
15.0041822074
15.1146737011
15.2190228358
15.3174383252
15.4103080052
15.497996535
15.5809083648
15.6594564872
15.7340476749
15.8051013163
15.8730135809
15.9381867004
16.0009973687
16.0618180874
16.1209978747
16.1788579518
16.2356673334
16.2916187702
16.3468126739
16.4012560025
16.4548750027
16.5075305916
16.5590377756
16.6091840796
16.6577474855
16.7045120675
16.7492819137
16.7918918029
16.8322143029
16.8701616541
16.9056846783
16.9387686698
16.9694287729
16.9977046955
17.0236562071
17.0473588107
17.0689001919
17.0883769153
17.105891788
17.1215515446
17.1354651199
17.1477421422
17.1584918152
17.1678218214
17.1758374731
17.1826407775
17.1883297661
17.1929977549
17.1967329964
17.1996184591
17.2017317936
17.2031452009
17.20392549
17.2041340632
17.2038274897
17.2030576706
17.2018723481
17.2003150259
17.1984254
17.1962390931
17.1937882399
17.1911011299
17.1882029701
17.1851155361
17.181858022
17.178446686
17.1748953696
17.1712154357
17.1674155793
17.1635024405
17.1594806799
17.1553518677
17.1511168077
17.1467755363
17.1423255901
17.137763078
17.1330828331
17.1282795947
17.123348744
17.1182822548
17.1130709062
17.1077047242
17.1021734554
17.0964645891
17.0905644435
17.0844573352
17.0781253263
17.0715505079
17.064699371
17.0575438014
17.0500200088
17.0420364302
17.0334471512
17.0240576222
17.0135494652
17.0013636566
16.9866727059
16.9678502954
16.9432142336
16.90714926
16.8608777718
16.7761335268
9.01600699816
9.35149572478
9.59750838741
9.81699912428
10.1939489917
10.3852193852
10.6759248073
10.993375312
11.3055751491
11.5438189996
11.7976892153
12.0533123992
12.2811737624
12.5040583359
12.7286689009
12.9428697713
13.1416535186
13.333785944
13.5210451703
13.7005985158
13.8723112108
14.03719041
14.1943379526
14.3423097092
14.4819943125
14.6147556179
14.7409589602
14.8605813717
14.973923309
15.0813087359
15.1830680334
15.2795327209
15.3710405787
15.4579486972
15.5406129348
15.619393047
15.6946389197
15.7667133478
15.8359596901
15.9027222624
15.9673239835
16.030074996
16.0912529197
16.1510918024
16.2097640887
16.2673691815
16.3239314888
16.3794104702
16.433711587
16.4867017086
16.5382222346
16.5881021123
16.6361702827
16.6822664979
16.7262519977
16.7680161426
16.8074801933
16.8445972979
16.8793503997
16.9117487434
16.9418238514
16.9696257037
16.9952191386
17.0186807742
17.0400962574
17.0595578852
17.0771626396
17.0930104053
17.1072026699
17.1198411663
17.1310270317
17.1408596665
17.1494361666
17.1568502883
17.1631920936
17.1685472173
17.172996889
17.1766173595
17.1794800287
17.1816509892
17.1831915353
17.1841581491
17.1846033121
17.1845753052
17.1841187547
17.1832743174
17.1820790978
17.1805665252
17.1787665639
17.1767060455
17.1744085123
17.1718950448
17.1691835787
17.166289833
17.1632268163
17.1600042911
17.1566311266
17.1531136519
17.1494541383
17.1456541756
17.1417161589
17.1376387729
17.1334177481
17.1290496238
17.1245283507
17.1198451474
17.1149911431
17.1099556195
17.1047255639
17.0992852113
17.0936162441
17.0876961453
17.0814993065
17.0749927021
17.0681391852
17.0608828664
17.0531625503
17.0448811508
17.0359107249
17.0260222314
17.0149378326
17.0022573851
16.9873142431
16.9691576312
16.9460837641
16.9163321255
16.8746714336
16.8221626323
16.7338127046
7.55359527949
7.91561809264
8.17722272361
8.40569409524
8.8163199057
9.02936517969
9.34705407453
9.69564321422
10.0342194497
10.3051488885
10.5949153559
10.8938654679
11.1617340172
11.3935215186
11.6342638497
11.8763074363
12.1093189958
12.3363013636
12.5586201502
12.77188595
12.9729839295
13.1648256814
13.3501816345
13.5290754648
13.7012264567
13.8666869811
14.0251443067
14.1756997839
14.318458119
14.4541821807
14.5834236824
14.7064051984
14.8233837797
14.9346600437
15.0405342357
15.1412913603
15.237221162
15.328620249
15.4158110699
15.4991114416
15.5788442079
15.65532376
15.7288698168
15.799780436
15.8683500393
15.9348517804
15.9995328053
16.0626001384
16.1242116746
16.184465458
16.2434009469
16.3010047303
16.3572203393
16.4119580859
16.4651049244
16.5165337284
16.5661124945
16.6137140098
16.6592250011
16.7025528993
16.7436300966
16.7824149615
16.8188911058
16.853064856
16.884962419
16.9146266119
16.9421140611
16.9674924859
16.9908384957
17.0122354907
17.0317719671
17.0495398851
17.0656333889
17.0801475501
17.0931774375
17.1048171245
17.1151589957
17.1242928878
17.1323055919
17.1392803045
17.145296349
17.1504286371
17.1547475331
17.1583185506
17.1612026873
17.1634566235
17.165133251
17.1662816058
17.1669471578
17.1671716303
17.1669932488
17.1664467084
17.165563242
17.1643711902
17.1628954474
17.1611588772
17.1591804666
17.1569779461
17.1545659261
17.1519549371
17.1491553171
17.1461758125
17.1430214596
17.1396946744
17.1361943386
17.1325197906
17.1286688765
17.1246378134
17.1204204892
17.1160077998
17.1113893511
17.1065517961
17.1014784636
17.0961482634
17.0905365563
17.0846121901