/*--------------------------------*- C++ -*----------------------------------*\
| =========                 |                                                 |
| \\      /  F ield         | OpenFOAM: The Open Source CFD Toolbox           |
|  \\    /   O peration     | Version:  5.x                                   |
|   \\  /    A nd           | Web:      www.OpenFOAM.org                      |
|    \\/     M anipulation  |                                                 |
\*---------------------------------------------------------------------------*/
FoamFile
{
    version     2.0;
    format      ascii;
    class       surfaceScalarField;
    location    "3000";
    object      phi;
}
// * * * * * * * * * * * * * * * * * * * * * * * * * * * * * * * * * * * * * //

dimensions      [0 3 -1 0 0 0 0];

internalField   nonuniform List<scalar> 
21712
(
3.09674868184e-06
3.68056346544e-08
3.04604386963e-06
5.07047540583e-08
2.99715881027e-06
4.88850042123e-08
2.94913373578e-06
4.80250175021e-08
2.90328147077e-06
4.58522031879e-08
2.86357696351e-06
3.97044432592e-08
2.83058316668e-06
3.29937493781e-08
2.80475333625e-06
2.58297898596e-08
2.78608068469e-06
1.86726204773e-08
2.77519486946e-06
1.08857769364e-08
2.7733926226e-06
1.80221716482e-09
2.77847395482e-06
-5.08136541734e-09
2.79033419232e-06
-1.18602642981e-08
2.8069613074e-06
-1.66271381116e-08
2.82851117202e-06
-2.15498842691e-08
2.85418384703e-06
-2.56726886464e-08
2.89105707767e-06
-3.6873252756e-08
-5.64422184017e-08
2.94749928305e-06
3.47082339682e-06
2.21131009666e-08
3.46105517478e-06
6.04729110531e-08
3.4515902692e-06
5.83498451107e-08
3.44416499805e-06
5.5450224358e-08
3.43838340873e-06
5.16337230401e-08
3.43437525212e-06
4.37125343132e-08
3.43257807961e-06
3.47908646161e-08
3.43334440527e-06
2.50634180731e-08
3.43759160183e-06
1.44253809106e-08
3.44588851041e-06
2.588827966e-09
3.45859425578e-06
-1.09035646907e-08
3.47741861583e-06
-2.39057582262e-08
3.50307354009e-06
-3.75152176451e-08
3.53848876903e-06
-5.20423903774e-08
3.5880479188e-06
-7.11090546906e-08
3.66510466261e-06
-1.02729450756e-07
3.80442010677e-06
-1.76188714132e-07
-3.65967245438e-07
4.11394511754e-06
3.81216654351e-06
2.18739308516e-08
3.82059041618e-06
5.20490123028e-08
3.82742188543e-06
5.15183496495e-08
3.83444501948e-06
4.84270611399e-08
3.84232669947e-06
4.37520093119e-08
3.85094874472e-06
3.50904556617e-08
3.86120244599e-06
2.45371357577e-08
3.87377797468e-06
1.24878663103e-08
3.88942739786e-06
-1.2240648443e-09
3.90890110084e-06
-1.68848983507e-08
3.93299081845e-06
-3.49933051748e-08
3.9638775181e-06
-5.47924797227e-08
4.00415066474e-06
-7.77883856088e-08
4.05884367081e-06
-1.06735415014e-07
4.13620369864e-06
-1.4846910054e-07
4.25093998587e-06
-2.17465754234e-07
4.42081813653e-06
-3.460668807e-07
-6.12156748948e-07
4.66700762523e-06
4.20719394229e-06
1.90346095976e-08
4.21782084741e-06
4.14220570069e-08
4.22751370304e-06
4.18254463762e-08
4.23826476824e-06
3.76759455903e-08
4.25068341919e-06
3.13333082319e-08
4.26462235641e-06
2.11514687221e-08
4.28073943207e-06
8.42001813236e-09
4.29962046617e-06
-6.39320646104e-09
4.32194137334e-06
-2.3545006223e-08
4.34857066368e-06
-4.35142233769e-08
4.38064014342e-06
-6.70628134673e-08
4.42047589079e-06
-9.46282558875e-08
4.47125427575e-06
-1.28566793723e-07
4.53787427077e-06
-1.73355432911e-07
4.62682250723e-06
-2.37417355603e-07
4.74467909071e-06
-3.35322356359e-07
4.89103820128e-06
-4.9242600529e-07
-7.54755647597e-07
5.03363708949e-06
4.64192608276e-06
1.42823105163e-08
4.65225849097e-06
3.10896290551e-08
4.6631763927e-06
3.09075230729e-08
4.67594148932e-06
2.4910825822e-08
4.69095648408e-06
1.63182866226e-08
4.70807425315e-06
4.0336745171e-09
4.72775282169e-06
-1.12585740294e-08
4.75055921903e-06
-2.91996243145e-08
4.77718579628e-06
-5.01716049231e-08
4.80855105529e-06
-7.48795043031e-08
4.84588159051e-06
-1.04393368951e-07
4.89126879601e-06
-1.40015481136e-07
4.94737932857e-06
-1.84677345029e-07
5.01738545211e-06
-2.43361573329e-07
5.10382247604e-06
-3.23854396471e-07
5.20576386488e-06
-4.37263759561e-07
5.3119896139e-06
-5.98651766382e-07
-8.25729763433e-07
5.38296371943e-06
5.11932838971e-06
9.48739038087e-09
5.12964330008e-06
2.07746685007e-08
5.14179845943e-06
1.87523133157e-08
5.15614155788e-06
1.05676779243e-08
5.17302508829e-06
-5.65294266184e-10
5.19237267314e-06
-1.53139562608e-08
5.21456054077e-06
-3.34464847208e-08
5.24014425952e-06
-5.4783380479e-08
5.26978074771e-06
-7.98081306197e-08
5.3043029587e-06
-1.09401747046e-07
5.34476694128e-06
-1.44857382179e-07
5.39267175351e-06
-1.87920318631e-07
5.44956002855e-06
-2.41565644161e-07
5.51641694395e-06
-3.10218509383e-07
5.59226975617e-06
-3.99707228263e-07
5.67174185124e-06
-5.16735870553e-07
5.74061802427e-06
-6.67527951738e-07
-8.54261511546e-07
5.7691497655e-06
5.64534496382e-06
5.15375315712e-09
5.65568551107e-06
1.04341001671e-08
5.66873786829e-06
5.69993426386e-09
5.68426997581e-06
-4.96445540696e-09
5.70257742073e-06
-1.88727660564e-08
5.72363467404e-06
-3.63712373546e-08
5.74772424194e-06
-5.75360769808e-08
5.77532119027e-06
-8.23803539391e-08
5.80696484663e-06
-1.11451811249e-07
5.84327872405e-06
-1.45715648731e-07
5.8849449114e-06
-1.86523590703e-07
5.93268314523e-06
-2.35658573653e-07
5.98679060168e-06
-2.95673118032e-07
6.04641751289e-06
-3.6984543882e-07
6.1084229942e-06
-4.6171272533e-07
6.16583669095e-06
-5.74149581474e-07
6.20598430617e-06
-7.07675576521e-07
-8.58079166986e-07
6.20980194964e-06
4.40909599736e-06
2.22747521761e-09
4.41637173017e-06
3.1583141321e-09
4.42608688793e-06
-4.01527408729e-09
4.43780287057e-06
-1.66804905903e-08
4.45163918994e-06
-3.27091340574e-08
4.46761705116e-06
-5.2349145735e-08
4.48588418485e-06
-7.58032516881e-08
4.50671955128e-06
-1.03215760078e-07
4.53044772201e-06
-1.35180016529e-07
4.55741116466e-06
-1.72679124131e-07
4.58791956087e-06
-2.17032013703e-07
4.62215524623e-06
-2.698942826e-07
4.65984721357e-06
-3.33365106006e-07
4.69976562449e-06
-4.09763870359e-07
4.73904234958e-06
-5.00989465128e-07
4.77244671982e-06
-6.07553965222e-07
4.79193709177e-06
-7.2716595606e-07
-8.53833411448e-07
4.7876913336e-06
5.14295455695e-06
-7.71162218033e-10
5.15068382534e-06
-4.57097726788e-09
5.1613137671e-06
-1.46452441613e-08
5.17431386738e-06
-2.9680621233e-08
5.18971327261e-06
-4.81085725456e-08
5.20748523513e-06
-7.01211380524e-08
5.22770771659e-06
-9.60257643787e-08
5.25056411943e-06
-1.26072191323e-07
5.27623590613e-06
-1.60851832953e-07
5.30483647081e-06
-2.01279713898e-07
5.33631569705e-06
-2.48511264181e-07
5.37030676515e-06
-3.03885370105e-07
5.40581039175e-06
-3.688687528e-07
5.44079769908e-06
-4.44751191403e-07
5.47184402182e-06
-5.3203580471e-07
5.49398549585e-06
-6.29695447076e-07
5.5010704884e-06
-7.34250956408e-07
-8.39790761978e-07
5.4870278109e-06
5.99896452488e-06
-3.81808734943e-09
6.00705174403e-06
-1.26582424858e-08
6.01846871727e-06
-2.60622654327e-08
6.03259147281e-06
-4.38034226206e-08
6.0493475548e-06
-6.48646983042e-08
6.06864141284e-06
-8.9415037212e-08
6.09044927279e-06
-1.17833663812e-07
6.11481692241e-06
-1.5043987495e-07
6.14173665126e-06
-1.87771595414e-07
6.17105127753e-06
-2.30594367977e-07
6.2023370457e-06
-2.79797056948e-07
6.23473902043e-06
-3.36287364247e-07
6.26672306327e-06
-4.00852812382e-07
6.29583558262e-06
-4.73863734892e-07
6.31860542433e-06
-5.54805648788e-07
6.33073031568e-06
-6.41820353043e-07
6.32771892098e-06
-7.31239570322e-07
-8.18048846165e-07
6.30597698625e-06
6.99746821293e-06
-6.88216966695e-09
7.00577495007e-06
-2.0965014669e-08
7.01778365184e-06
-3.80710040966e-08
7.03276430319e-06
-5.87841142943e-08
7.05052103082e-06
-8.26214634984e-08
7.07086964373e-06
-1.0976368982e-07
7.09365266493e-06
-1.40616718813e-07
7.11873665666e-06
-1.75523905135e-07
7.14588802895e-06
-2.14922997961e-07
7.17465960647e-06
-2.59365977328e-07
7.2042749691e-06
-3.09412441379e-07
7.2334918131e-06
-3.65504230825e-07
7.26044996956e-06
-4.27810999245e-07
7.28258528331e-06
-4.95999058212e-07
7.29671784776e-06
-5.68938236108e-07
7.29938617764e-06
-6.44488676802e-07
7.28749888388e-06
-7.19352312332e-07
-7.89656443403e-07
7.259106472e-06
8.16218910763e-06
-9.91695654621e-09
8.17052610835e-06
-2.93020561194e-08
8.18281358881e-06
-5.03585254598e-08
8.19823247432e-06
-7.42030380314e-08
8.2164376847e-06
-1.0082671199e-07
8.23712625614e-06
-1.30452296598e-07
8.25997911328e-06
-1.63469619328e-07
8.28465174267e-06
-2.00196557242e-07
8.31066451007e-06
-2.40935803603e-07
8.33729077888e-06
-2.85992263572e-07
8.36346265349e-06
-3.35584345067e-07
8.38768700507e-06
-3.89728602882e-07
8.40799132073e-06
-4.48115350661e-07
8.42195830052e-06
-5.09966060297e-07
8.42691458912e-06
-5.73894537362e-07
8.42028783784e-06
-6.37861944996e-07
8.40013594676e-06
-6.99200423049e-07
-7.55154953754e-07
8.36563440429e-06
9.52079152923e-06
-1.28478823202e-08
9.52889176517e-06
-3.74023312033e-08
9.54099116739e-06
-6.24579682759e-08
9.55621297362e-06
-8.94248844097e-08
9.57404888091e-06
-1.18662658067e-07
9.59404814458e-06
-1.50451608967e-07
9.61571303587e-06
-1.85134536265e-07
9.63847735955e-06
-2.22960925744e-07
9.66162370031e-06
-2.64082154406e-07
9.68419357321e-06
-3.08562173013e-07
9.7049286192e-06
-3.56319392046e-07
9.72224544965e-06
-4.07045488494e-07
9.73426063814e-06
-4.60130547185e-07
9.73889720329e-06
-5.14602681202e-07
9.73409904046e-06
-5.69096366512e-07
9.71813382156e-06
-6.21896764393e-07
9.68995691481e-06
-6.71023514495e-07
-7.14670293347e-07
9.64947223206e-06
1.11055360486e-05
-1.55574772389e-08
1.11130249518e-05
-4.48912678957e-08
1.11242805611e-05
-7.37136174038e-08
1.11384008093e-05
-1.03545163334e-07
1.1154722883e-05
-1.34984777797e-07
1.11726355119e-05
-1.6836427765e-07
1.11914657833e-05
-2.03964855656e-07
1.1210448877e-05
-2.41944040219e-07
1.12286774515e-05
-2.82310766616e-07
1.12450485001e-05
-3.24933224834e-07
1.12582440754e-05
-3.69515012105e-07
1.12667549596e-05
-4.15556375584e-07
1.12689525332e-05
-4.62328189418e-07
1.12632186684e-05
-5.08868808629e-07
1.1248132256e-05
-5.54010014725e-07
1.12226849796e-05
-5.96449460514e-07
1.11864926002e-05
-6.3483120186e-07
-6.68077105654e-07
1.11398994575e-05
1.29540515264e-05
-1.78748279424e-08
1.29604202177e-05
-5.12599959734e-08
1.29699636833e-05
-8.3257100176e-08
1.29817846347e-05
-1.15366155492e-07
1.29951004916e-05
-1.48300672026e-07
1.30091575779e-05
-1.82421412705e-07
1.30231424579e-05
-2.1794977732e-07
1.30361542028e-05
-2.54955822096e-07
1.30471848551e-05
-2.93341447898e-07
1.30551049324e-05
-3.32853328073e-07
1.30586778164e-05
-3.73087918844e-07
1.3056610858e-05
-4.13489453339e-07
1.30476410001e-05
-4.53358355965e-07
1.30306498463e-05
-4.91877689142e-07
1.30047971641e-05
-5.28157347228e-07
1.29696479807e-05
-5.61300307573e-07
1.29252718653e-05
-5.90455086677e-07
-6.15058089252e-07
1.28722528077e-05
1.51102371721e-05
-1.95717492418e-08
1.51148392707e-05
-5.58621187596e-08
1.51216015746e-05
-9.00194416491e-08
1.51296649114e-05
-1.23429520899e-07
1.51381866898e-05
-1.56822495315e-07
1.51463284771e-05
-1.90563249071e-07
1.51532083918e-05
-2.24829736232e-07
1.51578876284e-05
-2.59635102856e-07
1.51593757442e-05
-2.94829597302e-07
1.51566455066e-05
-3.30123127651e-07
1.51486667195e-05
-3.6510915576e-07
1.51344624848e-05
-3.99285256571e-07
1.51131826078e-05
-4.32078499029e-07
1.50841844569e-05
-4.62879577291e-07
1.50471101515e-05
-4.91083053048e-07
1.50019440279e-05
-5.16134227343e-07
1.49490419444e-05
-5.37552992897e-07
-5.55110367585e-07
1.48890941683e-05
1.76253011902e-05
-2.0352561434e-08
1.76273819793e-05
-5.79429426607e-08
1.76301625373e-05
-9.28000599823e-08
1.763286528e-05
-1.26132288309e-07
1.76346652792e-05
-1.58622569078e-07
1.76347305968e-05
-1.90628594955e-07
1.76322150557e-05
-2.2231426629e-07
1.76262616495e-05
-2.53681722887e-07
1.76160226428e-05
-2.84590649008e-07
1.7600688493e-05
-3.14789002551e-07
1.75795245671e-05
-3.43945273654e-07
1.75519160685e-05
-3.71676787966e-07
1.75174162474e-05
-3.97578710237e-07
1.74757903271e-05
-4.21253693835e-07
1.74270478787e-05
-4.423406253e-07
1.73714559736e-05
-4.60542372835e-07
1.73095333532e-05
-4.75630365824e-07
-4.87573390314e-07
1.72419963059e-05
1.78259772579e-05
-2.0073311357e-08
1.78251867968e-05
-5.7152577101e-08
1.78235022379e-05
-9.11155150675e-08
1.78203452502e-05
-1.22975421031e-07
1.78150709444e-05
-1.53348252128e-07
1.78070386306e-05
-1.82596414374e-07
1.77956262586e-05
-2.10901858039e-07
1.77802376e-05
-2.38293204216e-07
1.7760325839e-05
-2.64678832661e-07
1.77354195387e-05
-2.89882842069e-07
1.77051482904e-05
-3.13673958635e-07
1.76692652561e-05
-3.35793893772e-07
1.76276699605e-05
-3.55983342885e-07
1.75804216793e-05
-3.74005553308e-07
1.75277455115e-05
-3.89664387805e-07
1.74700234969e-05
-4.02820500824e-07
1.74077796288e-05
-4.13386417203e-07
-4.21424291503e-07
1.7341630398e-05
1.58804806644e-05
-1.91712384472e-08
1.5877939144e-05
-5.46110988566e-08
1.58735661975e-05
-8.67426592448e-08
1.58669695789e-05
-1.16378826093e-07
1.58577088897e-05
-1.44087674723e-07
1.58453802797e-05
-1.70267793976e-07
1.58296158548e-05
-1.9513756449e-07
1.58100862626e-05
-2.18763570578e-07
1.57865209517e-05
-2.41113652465e-07
1.57587262014e-05
-2.62088033817e-07
1.57265947196e-05
-2.81542606023e-07
1.56901151816e-05
-2.99314288984e-07
1.56493766378e-05
-3.152449295e-07
1.56045702047e-05
-3.29199054014e-07
1.55559821854e-05
-3.41076501921e-07
1.55039834114e-05
-3.5082166033e-07
1.54490133354e-05
-3.58416472078e-07
-3.63957751458e-07
1.53915468713e-05
1.41475350039e-05
-1.80086766336e-08
1.41442355663e-05
-5.13117114262e-08
1.41387101196e-05
-8.12172574895e-08
1.41306340624e-05
-1.08302838812e-07
1.41196874319e-05
-1.33141076044e-07
1.41056365196e-05
-1.56216972919e-07
1.40882846467e-05
-1.77785693446e-07
1.40674696689e-05
-1.9794869227e-07
1.40430899736e-05
-2.16733948281e-07
1.40151124245e-05
-2.34110570605e-07
1.39835724108e-05
-2.50002570377e-07
1.39485738139e-05
-2.64315773581e-07
1.39102889228e-05
-2.76960010496e-07
1.38689531751e-05
-2.87863391465e-07
1.38248577711e-05
-2.9698106474e-07
1.37783379783e-05
-3.04301957687e-07
1.37297628372e-05
-3.09841286025e-07
-3.13704175913e-07
1.36795091606e-05
1.26038252138e-05
-1.67826209216e-08
1.26003760616e-05
-4.78625946034e-08
1.25946463725e-05
-7.54876102091e-08
1.25862610689e-05
-9.99175786722e-08
1.25749751768e-05
-1.21855235313e-07
1.25606825631e-05
-1.41924392501e-07
1.25432916636e-05
-1.60394855314e-07
1.2522743008e-05
-1.77400077053e-07
1.24990403567e-05
-1.93031335767e-07
1.24722448274e-05
-2.07315086624e-07
1.2442466954e-05
-2.20224714563e-07
1.24098655695e-05
-2.31714446414e-07
1.23746455288e-05
-2.4173997481e-07
1.2337051075e-05
-2.50268984539e-07
1.22973582286e-05
-2.57288221959e-07
1.2255865482e-05
-2.62809249518e-07
1.22128860304e-05
-2.66861847958e-07
-2.69546658443e-07
1.21687285075e-05
1.12286204939e-05
-1.55835052918e-08
1.1225405845e-05
-4.46479740194e-08
1.12200552392e-05
-7.01370360863e-08
1.12120107176e-05
-9.18730907581e-08
1.1201136989e-05
-1.10981541674e-07
1.11874267341e-05
-1.28214175951e-07
1.11708342155e-05
-1.43802374287e-07
1.11513604748e-05
-1.57926365899e-07
1.11290786951e-05
-1.70749610718e-07
1.11041058877e-05
-1.82342291426e-07
1.10765921907e-05
-1.92711092085e-07
1.10467214285e-05
-2.01843674114e-07
1.1014707148e-05
-2.09725783758e-07
1.09807866913e-05
-2.16348495458e-07
1.09452139664e-05
-2.21715597481e-07
1.09082534702e-05
-2.25848705913e-07
1.08701734852e-05
-2.28781962453e-07
-2.30605594508e-07
1.0831232483e-05
1.0003437472e-05
-1.4392597406e-08
1.00007208032e-05
-4.19313293771e-08
9.99611841921e-06
-6.55346782725e-08
9.98873784925e-06
-8.44925509161e-08
9.97865654937e-06
-1.00900272478e-07
9.96593967193e-06
-1.15497324433e-07
9.95055120734e-06
-1.28413935389e-07
9.93253372117e-06
-1.39908909825e-07
9.91200351319e-06
-1.50219429402e-07
9.88910527014e-06
-1.59444086994e-07
9.86400691991e-06
-1.67612762481e-07
9.83690071986e-06
-1.74737529892e-07
9.80799751622e-06
-1.80822589399e-07
9.77752062011e-06
-1.8587166871e-07
9.74570121175e-06
-1.89896184601e-07
9.71277336886e-06
-1.92920944901e-07
9.67897006848e-06
-1.94978631714e-07
-1.96148514692e-07
9.64451290216e-06
8.91185386635e-06
-1.3138575209e-08
8.90976970761e-06
-3.98471911907e-08
8.90607929148e-06
-6.18442863275e-08
8.89952421416e-06
-7.79374988485e-08
8.89042673169e-06
-9.1802817469e-08
8.87885907269e-06
-1.03929687481e-07
8.86479333223e-06
-1.14348213882e-07
8.84832781329e-06
-1.23443409395e-07
8.82960874656e-06
-1.31500387743e-07
8.8087893033e-06
-1.38624668196e-07
8.78603943969e-06
-1.44862928489e-07
8.7615472257e-06
-1.50245340942e-07
8.73551181071e-06
-1.54787206128e-07
8.70813864868e-06
-1.58498531056e-07
8.67963589206e-06
-1.61393485489e-07
8.65021088084e-06
-1.63495949941e-07
8.62006552965e-06
-1.6483333892e-07
-1.65474415451e-07
8.58939143941e-06
7.93943622039e-06
-1.19004083784e-08
7.93795242109e-06
-3.83634160517e-08
7.93502136682e-06
-5.89132539139e-08
7.92918229031e-06
-7.2098445421e-08
7.92113022727e-06
-8.37507819408e-08
7.91075025054e-06
-9.35497314568e-08
7.89799421842e-06
-1.01592194819e-07
7.88301365306e-06
-1.08462865848e-07
7.86597354132e-06
-1.1446029225e-07
7.84703120169e-06
-1.19682352583e-07
7.82635796568e-06
-1.24189714054e-07
7.80413559617e-06
-1.28022990744e-07
7.78055032678e-06
-1.3120196236e-07
7.75579057785e-06
-1.33738814295e-07
7.73004456902e-06
-1.35647506507e-07
7.70349814765e-06
-1.36949566736e-07
7.6763312402e-06
-1.37666465251e-07
-1.37863669307e-07
7.64872044472e-06
7.07262443358e-06
-1.0189648567e-08
7.07213324806e-06
-3.787224941e-08
7.06960438078e-06
-5.63844112014e-08
7.06420232091e-06
-6.66964086654e-08
7.05698639921e-06
-7.65348850451e-08
7.04758089834e-06
-8.4144248086e-08
7.03592653121e-06
-8.99378456201e-08
7.02217872969e-06
-9.47150727603e-08
7.00648209444e-06
-9.87636811842e-08
6.98899439213e-06
-1.02194671178e-07
6.96989452896e-06
-1.05089868524e-07
6.94936542032e-06
-1.07493904586e-07
6.92758835675e-06
-1.09424914721e-07
6.90474273067e-06
-1.10893212696e-07
6.88100442922e-06
-1.11909237671e-07
6.85654439286e-06
-1.1248956136e-07
6.8315215708e-06
-1.12643679928e-07
-1.12427474652e-07
6.80608532795e-06
6.29712732718e-06
-4.8017980067e-09
6.299013004e-06
-3.9757961444e-08
6.29750639459e-06
-5.4877809689e-08
6.29290782713e-06
-6.20978572058e-08
6.2862633281e-06
-6.98904088713e-08
6.27712653287e-06
-7.50074698664e-08
6.26572174049e-06
-7.8533057892e-08
6.2522957835e-06
-8.12891647525e-08
6.23700182013e-06
-8.34697079266e-08
6.22000500059e-06
-8.51978715638e-08
6.20148743154e-06
-8.65723178266e-08
6.18163108547e-06
-8.76375669534e-08
6.16061356818e-06
-8.84074470463e-08
6.13860818229e-06
-8.88878272126e-08
6.11578267114e-06
-8.90837470221e-08
6.09229841707e-06
-8.90053361076e-08
6.06831044362e-06
-8.86557419984e-08
-8.80905204489e-08
6.04397345584e-06
5.60351428836e-06
6.58596889069e-09
5.60680511719e-06
-4.30488238315e-08
5.6058498235e-06
-5.39225336449e-08
5.60172036512e-06
-5.79684125691e-08
5.59495628636e-06
-6.31263511266e-08
5.58494095303e-06
-6.49921474518e-08
5.57219923808e-06
-6.57913720954e-08
5.55719056724e-06
-6.62805200471e-08
5.54024349033e-06
-6.65226369512e-08
5.52163352314e-06
-6.6587913506e-08
5.50159422171e-06
-6.65330259605e-08
5.48032798033e-06
-6.63713685211e-08
5.45801851875e-06
-6.60980048933e-08
5.43483728682e-06
-6.57066105561e-08
5.41094607923e-06
-6.51925498489e-08
5.38649596012e-06
-6.45552422996e-08
5.36163042467e-06
-6.37902325916e-08
-6.29408765399e-08
5.33648073911e-06
5.01127491512e-06
-2.38025783692e-09
5.00255690348e-06
-3.43308552774e-08
4.98851298355e-06
-3.98786363989e-08
4.97419078651e-06
-4.3646233154e-08
4.95871837359e-06
-4.76539613143e-08
4.94103534677e-06
-4.73091393575e-08
4.92133593998e-06
-4.60919965126e-08
4.8998080046e-06
-4.47526187121e-08
4.8766948736e-06
-4.34095117299e-08
4.85225657521e-06
-4.21496237483e-08
4.82672295029e-06
-4.09994229046e-08
4.80029573942e-06
-3.99441959059e-08
4.77315634214e-06
-3.89586413831e-08
4.74546955138e-06
-3.80198312174e-08
4.71738687051e-06
-3.71098829091e-08
4.68904466338e-06
-3.62130586139e-08
4.66057206225e-06
-3.53176609843e-08
-3.44103888551e-08
4.63204154273e-06
4.45417005024e-06
4.41983919269e-06
4.37996055457e-06
4.33631431874e-06
4.28866035534e-06
4.24135121226e-06
4.19525921037e-06
4.15050659086e-06
4.10709707788e-06
4.06494745119e-06
4.02394802132e-06
3.98400381811e-06
3.94504517398e-06
3.90702534048e-06
3.8699154524e-06
3.83370238714e-06
3.79838471721e-06
3.76397432085e-06
1.26680472028e-08
-1.26130210609e-08
2.06870185905e-08
-7.98935610284e-09
4.90367079449e-08
-2.83258474127e-08
8.67563247963e-08
-3.76957394779e-08
1.30832446526e-07
-4.40548023747e-08
1.79732206298e-07
-4.88766809257e-08
2.37416598026e-07
-5.76636376821e-08
3.00524702777e-07
-6.30872818647e-08
3.66705710594e-07
-6.61635544936e-08
4.360651347e-07
-6.93427011023e-08
5.07170912377e-07
-7.10918777526e-08
5.78923882339e-07
-7.17392652196e-08
6.50632209594e-07
-7.16967103464e-08
7.21820540081e-07
-7.11780830537e-08
7.92151038754e-07
-7.0322817902e-08
8.61390945751e-07
-6.92345978708e-08
9.29369475989e-07
-6.79750757832e-08
9.95955171009e-07
-6.65837116902e-08
1.06104483618e-06
-6.50884039461e-08
1.12455653517e-06
-6.35109301985e-08
1.18642690823e-06
-6.18698352215e-08
1.24660825355e-06
-6.01808736909e-08
1.30506660532e-06
-5.84579967261e-08
1.36177996719e-06
-5.6712914705e-08
1.41673677786e-06
-5.49565007431e-08
1.46993498723e-06
-5.31977643735e-08
1.52138087214e-06
-5.14456190187e-08
1.57108810679e-06
-4.97068210828e-08
1.61907713773e-06
-4.79888191416e-08
1.66537364476e-06
-4.62961527502e-08
1.71000960021e-06
-4.46358056335e-08
1.75302207742e-06
-4.30121938793e-08
1.79444501281e-06
-4.14228423068e-08
1.83431324937e-06
-3.98680270601e-08
1.87266569495e-06
-3.83524077246e-08
1.90954532042e-06
-3.6879487157e-08
1.94499481374e-06
-3.54495063296e-08
1.97905706128e-06
-3.40621722647e-08
2.01177459077e-06
-3.27175887236e-08
2.0431900553e-06
-3.14154505664e-08
2.07334546088e-06
-3.01555093307e-08
2.10228265774e-06
-2.89371950243e-08
2.13004263934e-06
-2.77599774283e-08
2.15666583102e-06
-2.6623020841e-08
2.18219151416e-06
-2.55255349137e-08
2.20665824149e-06
-2.44665275693e-08
2.23010345751e-06
-2.34451509843e-08
2.25256388428e-06
-2.2460347688e-08
2.27407506486e-06
-2.15112189056e-08
2.29467168692e-06
-2.05966314048e-08
2.31438722808e-06
-1.97156365427e-08
2.33325415669e-06
-1.88669940524e-08
2.35130362447e-06
-1.80495924352e-08
2.36856601988e-06
-1.72624831484e-08
2.38507051682e-06
-1.6504590203e-08
2.40084523196e-06
-1.57747484082e-08
2.41591708459e-06
-1.50718565222e-08
2.43031185702e-06
-1.43947224589e-08
2.44405407867e-06
-1.37421407365e-08
2.4571670413e-06
-1.31128574093e-08
2.46967279108e-06
-1.25056269445e-08
2.48159206613e-06
-1.19191527728e-08
2.49294429881e-06
-1.13521015986e-08
2.50374740873e-06
-1.08029988906e-08
2.51401779238e-06
-1.02702690205e-08
2.52377000818e-06
-9.75213296164e-09
2.53301675657e-06
-9.24666196941e-09
2.54176822525e-06
-8.75141807934e-09
2.55003203924e-06
-8.26375652449e-09
2.55781218848e-06
-7.78012657941e-09
2.56510888806e-06
-7.29666547005e-09
2.57191676727e-06
-6.80787625923e-09
2.57822456482e-06
-6.3077786457e-09
2.58401205519e-06
-5.78749853463e-09
2.58924915241e-06
-5.23708622294e-09
2.59389043372e-06
-4.64129480946e-09
2.59787299567e-06
-3.98255533921e-09
2.60110566576e-06
-3.23268815223e-09
2.60346561737e-06
-2.35995115462e-09
2.60476583233e-06
-1.30024207269e-09
2.60477622936e-06
-1.04096559073e-11
2.60307304658e-06
1.70313839861e-09
2.59907887017e-06
3.99414363207e-09
2.59233879512e-06
6.7400096298e-09
2.58098038781e-06
1.13583275477e-08
2.56214894753e-06
1.88312323919e-08
2.53137799226e-06
3.07706839819e-08
2.4705310384e-06
6.08466406478e-08
1.30208100132e-07
2.34032278059e-06
1.40332578088e-07
-1.40340825678e-07
1.63590217024e-07
-2.32372350365e-08
2.03980957674e-07
-4.03697843906e-08
2.54880825159e-07
-6.34930889795e-08
3.24015812226e-07
-7.71157210063e-08
3.85852068553e-07
-9.01547506433e-08
4.48232442767e-07
-1.00069736893e-07
5.13569801481e-07
-1.09385095441e-07
5.82727999018e-07
-1.18027765548e-07
6.52108403992e-07
-1.27036747935e-07
7.22181035864e-07
-1.33153094223e-07
7.9316112945e-07
-1.37137239663e-07
8.6417645617e-07
-1.40352162078e-07
9.35303198272e-07
-1.42213159142e-07
1.00635104319e-06
-1.42781796704e-07
1.07704105156e-06
-1.42381893704e-07
1.14711891392e-06
-1.41251789853e-07
1.21636079916e-06
-1.39561573669e-07
1.28456842559e-06
-1.37440132115e-07
1.3515762458e-06
-1.34981514124e-07
1.41724942037e-06
-1.32256081895e-07
1.48148019906e-06
-1.29318526769e-07
1.54418344289e-06
-1.26213775988e-07
1.605293674e-06
-1.22979621364e-07
1.66476187806e-06
-1.19648776755e-07
1.72255384281e-06
-1.16249569016e-07
1.77864795167e-06
-1.12806733345e-07
1.83303384432e-06
-1.09342025569e-07
1.88571070585e-06
-1.05874348223e-07
1.93668594468e-06
-1.02420529873e-07
1.98597411785e-06
-9.89947442504e-08
2.03359537998e-06
-9.56098055014e-08
2.07957535705e-06
-9.22759204029e-08
2.12394229841e-06
-8.90025295773e-08
2.16672794022e-06
-8.57976696057e-08
2.20796932478e-06
-8.26640639742e-08
2.24770824697e-06
-7.96068264878e-08
2.28598627618e-06
-7.66303239434e-08
2.3228406499e-06
-7.37337782943e-08
2.35830958741e-06
-7.09183738048e-08
2.39243284735e-06
-6.81853852777e-08
2.42525082444e-06
-6.55355334496e-08
2.45680416813e-06
-6.29687792722e-08
2.48713343704e-06
-6.04847800522e-08
2.51627894668e-06
-5.8082681147e-08
2.54428046201e-06
-5.57614197828e-08
2.57117711941e-06
-5.35195345516e-08
2.59700722141e-06
-5.13554678272e-08
2.62180827034e-06
-4.92674264415e-08
2.645616834e-06
-4.72536072295e-08
2.66846860107e-06
-4.5312044567e-08
2.69039820751e-06
-4.34407928211e-08
2.71143935892e-06
-4.16377701018e-08
2.73162466221e-06
-3.99009549025e-08
2.75098563316e-06
-3.82279886246e-08
2.76955289047e-06
-3.66168955591e-08
2.78735607442e-06
-3.50656965717e-08
2.80442347792e-06
-3.357202037e-08
2.82078224182e-06
-3.21334981312e-08
2.83645831306e-06
-3.07478979907e-08
2.85147656363e-06
-2.94129043632e-08
2.86586071239e-06
-2.81262112781e-08
2.87963337571e-06
-2.68854210219e-08
2.89281595834e-06
-2.56881114611e-08
2.9054286666e-06
-2.45317566116e-08
2.91749038189e-06
-2.34137223233e-08
2.92901861197e-06
-2.2331140451e-08
2.94002928364e-06
-2.12808670516e-08
2.95053675755e-06
-2.025954629e-08
2.96055336641e-06
-1.92632252017e-08
2.97008933652e-06
-1.82873570883e-08
2.97915204234e-06
-1.7326442895e-08
2.98774593491e-06
-1.6374012219e-08
2.99587121161e-06
-1.54219422218e-08
3.00352370278e-06
-1.4460376479e-08
3.01069253989e-06
-1.3476627185e-08
3.01736000842e-06
-1.24549842381e-08
3.0234972484e-06
-1.13743424455e-08
3.02906369157e-06
-1.0207758395e-08
3.0339992557e-06
-8.91813770012e-09
3.03822279254e-06
-7.4562483267e-09
3.04161545389e-06
-5.75263457647e-09
3.04402127288e-06
-3.70609159112e-09
3.04518481708e-06
-1.17398581194e-09
3.04481311416e-06
2.07479631596e-09
3.04226261902e-06
6.54459113869e-09
3.03680088525e-06
1.22016815831e-08
3.02741571866e-06
2.07434079641e-08
3.01190170424e-06
3.43450835715e-08
2.98637101839e-06
5.63011254045e-08
2.94490894374e-06
1.0230848782e-07
1.8620328856e-07
2.8889136055e-06
2.90705144014e-07
-2.90710450029e-07
3.5985112765e-07
-6.91661522599e-08
4.44969898413e-07
-8.51072695046e-08
4.14032945012e-07
-1.09398542312e-07
4.91149054828e-07
-1.00353082192e-07
5.65790120675e-07
-1.149929085e-07
6.40504015058e-07
-1.3820244775e-07
7.14299902299e-07
-1.50911023925e-07
7.85633587035e-07
-1.61486774591e-07
8.56026474217e-07
-1.70462177826e-07
9.25698096096e-07
-1.79054243719e-07
9.9484921432e-07
-1.8717725122e-07
1.06257709303e-06
-1.94761403566e-07
1.13002811037e-06
-2.00602062051e-07
1.1976689757e-06
-2.04775073139e-07
1.26499244019e-06
-2.0767374497e-07
1.33197763803e-06
-2.09195583623e-07
1.3986027706e-06
-2.09404859845e-07
1.4647239618e-06
-2.08500740576e-07
1.53015817983e-06
-2.066843828e-07
1.59472468112e-06
-2.04127002485e-07
1.65825730259e-06
-2.00972147485e-07
1.72061266035e-06
-1.97336676955e-07
1.78167228461e-06
-1.93315507241e-07
1.84134079719e-06
-1.88986923393e-07
1.89954375372e-06
-1.8441654942e-07
1.95622466281e-06
-1.79660344941e-07
2.01134267303e-06
-1.74766585482e-07
2.06487045373e-06
-1.69777108014e-07
2.1167922956e-06
-1.64728368715e-07
2.16710259356e-06
-1.59652062756e-07
2.21580422643e-06
-1.54575793953e-07
2.26290738978e-06
-1.49523448708e-07
2.3084283603e-06
-1.44515562745e-07
2.3523884723e-06
-1.39569710497e-07
2.39481331001e-06
-1.34700648285e-07
2.43573166079e-06
-1.29920720408e-07
2.47517424022e-06
-1.25240179683e-07
2.51317600898e-06
-1.2066571961e-07
2.54977132658e-06
-1.16202110944e-07
2.58499551682e-06
-1.11854443566e-07
2.618888429e-06
-1.07626688161e-07
2.65149056443e-06
-1.03520475318e-07
2.68284177999e-06
-9.95366264782e-08
2.71298158084e-06
-9.56753306508e-08
2.74194894705e-06
-9.19361931275e-08
2.7697825127e-06
-8.83183667083e-08
2.79652033307e-06
-8.48205422922e-08
2.82219989399e-06
-8.14409508747e-08
2.84685790159e-06
-7.81774913176e-08
2.87053031199e-06
-7.50277842557e-08
2.89325220363e-06
-7.1989266218e-08
2.91505783166e-06
-6.90591916465e-08
2.93598051591e-06
-6.62347378006e-08
2.95605264091e-06
-6.3512932668e-08
2.97530566635e-06
-6.08908482848e-08
2.99376996205e-06
-5.83653039105e-08
3.01147573811e-06
-5.59338446836e-08
3.02845208892e-06
-5.35933198665e-08
3.044725716e-06
-5.13394004209e-08
3.06032245567e-06
-4.91688104341e-08
3.07526734669e-06
-4.7078422229e-08
3.08958449697e-06
-4.50650486681e-08
3.10329703193e-06
-4.31254222553e-08
3.11642705751e-06
-4.12561969546e-08
3.12899562739e-06
-3.94539427886e-08
3.14102268918e-06
-3.77151133876e-08
3.15252705093e-06
-3.60360584534e-08
3.1635262871e-06
-3.44128955276e-08
3.17403667484e-06
-3.28414722742e-08
3.18407311063e-06
-3.13172498052e-08
3.19364892356e-06
-2.98353171004e-08
3.20277552758e-06
-2.83897918447e-08
3.21146228241e-06
-2.69740861857e-08
3.21971598933e-06
-2.55801278852e-08
3.2275406196e-06
-2.41986312141e-08
3.23493634851e-06
-2.28176613448e-08
3.24189909048e-06
-2.14231175735e-08
3.24841879911e-06
-1.99963337593e-08
3.25447887143e-06
-1.85150617576e-08
3.26005261962e-06
-1.69480924982e-08
3.26510248515e-06
-1.52576323061e-08
3.26957283728e-06