/*--------------------------------*- C++ -*----------------------------------*\
| =========                 |                                                 |
| \\      /  F ield         | OpenFOAM: The Open Source CFD Toolbox           |
|  \\    /   O peration     | Version:  5.x                                   |
|   \\  /    A nd           | Web:      www.OpenFOAM.org                      |
|    \\/     M anipulation  |                                                 |
\*---------------------------------------------------------------------------*/
FoamFile
{
    version     2.0;
    format      ascii;
    class       volVectorField;
    location    "3000";
    object      U;
}
// * * * * * * * * * * * * * * * * * * * * * * * * * * * * * * * * * * * * * //

dimensions      [0 1 -1 0 0 0 0];

internalField   nonuniform List<vector> 
10996
(
(9.83947198654 -1.07209835873 0)
(9.80791028949 -0.639477716264 -2.63523579882e-21)
(9.66285936282 -0.318134579676 2.26421139193e-20)
(9.49210429369 -0.156572393986 -7.12755338008e-20)
(9.33989156444 -0.076003631768 4.92444606689e-20)
(9.2009802827 -0.0338500126058 -1.05770009223e-19)
(9.09256599507 -0.0138460754047 1.08038233094e-19)
(8.99633913019 -0.00401747104313 2.03509213777e-19)
(8.93699832365 -0.000696659285502 -2.35646470565e-19)
(8.88929102499 -0.00174131607672 -6.25776689396e-20)
(8.88322209611 -0.00676567424641 0)
(8.90309753629 -0.0111451583216 0)
(8.94652320193 -0.0209862605561 -4.73366762776e-18)
(9.02048963992 -0.0324276774854 4.74410634138e-18)
(9.11296435024 -0.0650661543539 0)
(9.21878445787 -0.107604234854 0)
(9.32650510492 -0.17829263762 -7.06748446102e-19)
(9.51618993384 -0.275009384332 1.49053539914e-18)
(10.0363389687 0.35051547353 1.56566829511e-21)
(10.0322282291 0.320654845388 1.32496938351e-20)
(10.0060018349 0.220012025127 1.64467011293e-20)
(9.97662597109 0.144861884929 -3.4387661493e-20)
(9.95861115496 0.102142891253 0)
(9.94643772419 0.0728318090577 0)
(9.94102684072 0.0534985044442 -3.96792372767e-20)
(9.94227032254 0.0386502425792 -3.1657665349e-19)
(9.95393195154 0.0255489463196 3.42769061744e-19)
(9.97771223833 0.0125753575742 -7.88207655152e-19)
(10.0160430099 -0.00250305132858 2.30944234161e-18)
(10.0710311828 -0.0192082698867 1.70854860029e-18)
(10.1457770409 -0.0389269961658 -3.2883455119e-18)
(10.2433818218 -0.0647800664887 0)
(10.3672143611 -0.0984806959107 1.49250175064e-17)
(10.51838148 -0.152038989713 -1.5062708131e-17)
(10.7036333738 -0.253975946289 1.48056129653e-18)
(10.9416468534 -0.410086799888 3.22015845081e-17)
(9.99685906648 0.0349470298723 -1.17153547792e-21)
(10.0096422842 0.011627993369 8.25954039126e-21)
(10.0324191896 -0.00086932331164 6.06444258498e-21)
(10.0507982885 0.00643343958587 0)
(10.0708355666 0.0140925643654 -5.65733884824e-20)
(10.0936368166 0.0161307830035 1.49305171802e-19)
(10.1200310622 0.0136329240199 -3.47105123335e-19)
(10.1519068779 0.00741899282166 2.61266967021e-19)
(10.1915345595 -0.00205627515866 0)
(10.2409146412 -0.015508257283 7.33065812047e-20)
(10.3014511062 -0.0340442854913 -1.53679475417e-19)
(10.3755511539 -0.0572462801568 0)
(10.4666675114 -0.088084854851 5.43004161857e-18)
(10.5782275685 -0.130777290759 -5.5932620451e-18)
(10.7128569992 -0.194444076742 -1.20816454649e-17)
(10.8715698935 -0.294620585407 2.50671632294e-17)
(11.0522891813 -0.453912900299 1.37381346883e-17)
(11.2461821274 -0.71140595487 1.86303217089e-18)
(10.0001473626 0.00497677241874 0)
(10.0160375545 0.0197556706831 -9.01091296705e-21)
(10.0433486279 0.029289320624 -4.94453348252e-21)
(10.0685656361 0.0329407457407 1.07064421531e-20)
(10.0958343805 0.0306143531431 2.28786527107e-20)
(10.1277012972 0.0234461178028 9.85366579622e-20)
(10.1644004825 0.013410593753 -1.02068621242e-19)
(10.2069656777 0.000822185896684 5.44559196257e-20)
(10.2569416 -0.0149841444746 -4.67335312697e-19)
(10.31585732 -0.0351230121622 4.75577451278e-19)
(10.3850672026 -0.0611276133291 1.27157222022e-19)
(10.4665837933 -0.0942724985809 1.33248356858e-19)
(10.5631436403 -0.138464179611 4.76233904404e-18)
(10.6769954816 -0.199971482406 5.55327426773e-19)
(10.8084568927 -0.289556459337 -1.4997174855e-17)
(10.9534049181 -0.422405768 -6.40241730628e-19)
(11.0999700824 -0.619525108506 9.68539465523e-18)
(11.2234273482 -0.912996198445 0)
(10.0022194277 0.00793079150895 1.85537856348e-21)
(10.0185094179 0.0239199511311 4.04299050357e-21)
(10.0435411981 0.0263853795593 -1.75371218373e-20)
(10.0696759443 0.0227131923508 1.83955241424e-20)
(10.0991570955 0.0166381327472 7.93919060707e-20)
(10.1339462633 0.00758363651704 -1.66550297799e-19)
(10.1739353315 -0.00442702961534 4.29952454935e-20)
(10.2197445871 -0.0197401112053 -4.62347412536e-20)
(10.2726136856 -0.0392597539351 0)
(10.3338297881 -0.0642749187822 8.29547561957e-19)
(10.4045559402 -0.0966502005472 9.05099358103e-19)
(10.486265888 -0.13865052119 -3.62421094892e-20)
(10.5805947219 -0.19472954084 -1.8410057254e-18)
(10.6879845332 -0.271902307079 -3.24540284238e-21)
(10.8058714978 -0.380500078964 -3.95566466896e-18)
(10.9258922668 -0.533419339583 -4.53915893773e-18)
(11.0325036258 -0.744801990248 1.6706234587e-17)
(11.0973717209 -1.0284344968 -8.66452334077e-18)
(10.0020195469 0.00749797677027 -1.81100260716e-21)
(10.0167750703 0.0175237692152 0)
(10.040130557 0.0166936776618 -2.44067975138e-20)
(10.0665073437 0.0115250943403 8.35892864223e-21)
(10.0966045727 0.00417092750388 -1.07384791225e-19)
(10.1318144977 -0.00666677050752 -1.489744719e-21)
(10.1721951055 -0.0213181948784 1.16035450298e-19)
(10.2182214178 -0.04010013901 0)
(10.2708655614 -0.0639468882323 4.23616286947e-20)
(10.3311092593 -0.0943180989423 0)
(10.3997705095 -0.133325600119 0)
(10.477624546 -0.183783983525 9.62108847108e-20)
(10.5650402254 -0.250282503957 -1.65339875523e-18)
(10.6606741281 -0.33946072445 1.43230700107e-18)
(10.7598445689 -0.459822608743 -3.26821653937e-19)
(10.8525420714 -0.620257980026 1.08925607758e-19)
(10.923511907 -0.82744761025 -7.132775193e-18)
(10.9485527737 -1.08356239482 7.28607773175e-18)
(10.0015029561 0.00459398842583 1.72763232791e-21)
(10.0142244576 0.00979672578504 3.63588576526e-21)
(10.0358909216 0.00748322558449 2.26616855159e-20)
(10.0616959201 0.000868397359231 -1.54624792549e-20)
(10.0912844354 -0.00875400845515 1.61507518592e-20)
(10.1257154981 -0.0222379738499 -5.08709502525e-20)
(10.1651683454 -0.0399750430355 2.0919086667e-19)
(10.2099374452 -0.062411703688 1.49599389888e-19)
(10.2606761198 -0.0905941191507 -2.92831153029e-20)
(10.3180075199 -0.12611764254 -3.06657350975e-19)
(10.3822999565 -0.171194952831 0)
(10.4535701095 -0.228765758868 -8.45060978559e-20)
(10.5310344779 -0.303039379079 8.61441625722e-20)
(10.6120380115 -0.399491927959 -8.879375041e-20)
(10.6909248696 -0.524183228599 3.13560105576e-21)
(10.7579457218 -0.682130464803 2.95808592717e-18)
(10.8002244196 -0.874861273339 -2.98624483052e-18)
(10.799848363 -1.09850705092 9.61122707066e-20)
(10.0012393228 0.00218282067741 9.98139881493e-24)
(10.0123844047 0.00400326736743 -1.19968852303e-20)
(10.0323066314 -0.000117368985407 1.66432691171e-20)
(10.0569236712 -0.00870009549699 -8.4401635657e-21)
(10.0854231197 -0.0206344817467 1.76519196676e-20)
(10.1185427176 -0.0365155166703 0)
(10.1564334606 -0.0569149919981 0)
(10.1992234864 -0.0824568700196 0)
(10.2472899433 -0.114262505813 1.65998017813e-19)
(10.3009365167 -0.153965832664 -1.67838983014e-19)
(10.3601335286 -0.203749701188 -4.39164976157e-20)
(10.4243262812 -0.266414859071 7.45606569055e-19)
(10.4919967333 -0.345588314196 -7.48381756468e-19)
(10.5598418403 -0.445487354667 2.12133404234e-21)
(10.6220505998 -0.570052672584 -1.52266727467e-18)
(10.6698119118 -0.721468303429 3.24422171021e-18)
(10.6926804241 -0.898211452296 -3.04208004418e-18)
(10.6778275302 -1.09412796775 1.54121251289e-18)
(10.0010864867 0.000258564046377 8.57202574041e-27)
(10.0109831049 -0.000935120589953 7.57921998511e-21)
(10.0292525734 -0.00707632603261 1.95561846354e-20)
(10.0525166784 -0.0175372707439 -7.79267534149e-21)
(10.0797062374 -0.0314946151968 -7.84564661164e-21)
(10.1112639785 -0.0495030680131 -3.36384408191e-20)
(10.147284391 -0.0722484716801 0)
(10.1877547911 -0.100452236141 1.79758261075e-20)
(10.2328046465 -0.135248163281 1.50920390735e-19)
(10.28244593 -0.178227808316 -4.63950318607e-19)
(10.3363009388 -0.231439070865 3.53430497002e-19)
(10.3933741276 -0.297393484323 0)
(10.4516714889 -0.379075898416 -8.51064299967e-20)
(10.5076167914 -0.479596252737 4.48651613507e-20)
(10.555666008 -0.601333782707 0)
(10.5882331627 -0.744721678894 -4.35787314541e-20)
(10.5971314233 -0.906760337622 -9.09101036873e-20)
(10.5733450028 -1.08083371326 4.45800029414e-20)
(10.000959722 -0.00163247992177 1.76979836136e-21)
(10.0096638726 -0.00611089200834 3.73911267904e-21)
(10.0261415524 -0.0146238286415 3.90574790877e-21)
(10.0477100825 -0.0271944076153 -1.53877169374e-20)
(10.0731370333 -0.0433752963661 7.93301418972e-21)
(10.102576761 -0.0637124749049 -1.61660006255e-20)
(10.1360427229 -0.0889532613257 -6.71231060056e-20)
(10.1733763953 -0.119883658151 5.03943311474e-20)
(10.2144483244 -0.157609372377 1.73737218017e-20)
(10.2589681883 -0.203606958155 0)
(10.3062256692 -0.259682059228 0)
(10.3548693591 -0.327906790941 0)
(10.4026265848 -0.410493966876 0)
(10.4459634994 -0.509404287883 6.71183503006e-19)
(10.4799823012 -0.625614265905 -6.65824934056e-19)
(10.4986191037 -0.75825008873 4.06495013002e-20)
(10.4959240039 -0.903650814046 0)
(10.4661252614 -1.05570253114 6.49002801622e-19)
(10.0008417112 -0.00353394151919 0)
(10.0084052106 -0.0114802319146 7.10975846538e-21)
(10.0229983968 -0.0226341120666 -3.57642406359e-21)
(10.0425485531 -0.0375430323444 -1.47405796436e-20)
(10.0657543673 -0.0561292903259 7.39004442087e-21)
(10.0925057923 -0.0789313570458 -2.29647348716e-20)
(10.12270461 -0.10671668219 3.07475796078e-20)
(10.1560458832 -0.140297951531 0)
(10.192155104 -0.180702968591 -1.62206668232e-20)
(10.2304656938 -0.229215765527 -1.49104432777e-19)
(10.2699998571 -0.287305452402 1.32561500328e-19)
(10.309188826 -0.35651072395 -2.75083628087e-19)
(10.3457077417 -0.438249120155 3.07812442126e-19)
(10.3763407802 -0.533455971906 -3.43239312409e-20)
(10.3970665482 -0.642043569941 7.03439196208e-20)
(10.4033780034 -0.762372114299 5.61859012504e-19)
(10.3912888715 -0.890772285554 -2.92678369741e-21)
(10.3574544776 -1.02210808132 -1.11619226314e-18)
(10.0007275386 -0.00543300136409 -2.37894068646e-21)
(10.0071848097 -0.0169339566952 -3.33705384424e-21)
(10.0198048908 -0.0309459756378 3.31903800987e-21)
(10.0370173635 -0.0483717392468 1.02707830153e-20)
(10.0575393668 -0.0694517706294 2.09283133579e-20)
(10.0810335551 -0.0947307765879 -4.88847271724e-20)
(10.1072642892 -0.124958093808 2.8157321571e-20)
(10.1357883491 -0.160921126281 0)
(10.1660257972 -0.203516817113 0)
(10.1971952346 -0.253771790388 1.1975057103e-19)
(10.228155104 -0.312758262421 -1.04213105666e-19)
(10.2572838543 -0.381456328235 0)
(10.2824174418 -0.460559625491 -2.92401579966e-19)
(10.3008561392 -0.550195987261 2.76119185159e-19)
(10.3095413677 -0.649586088659 -3.15245136007e-20)
(10.3053803592 -0.756783116879 0)
(10.28595591 -0.868507784986 0)
(10.2495866887 -0.980755365913 -1.42942705066e-20)
(10.0006124676 -0.00729027099808 -2.17909714952e-21)
(10.005973258 -0.0223235157162 1.51460087695e-21)
(10.0165225441 -0.0393010411531 6.14097860633e-21)
(10.0310808509 -0.0593140294656 6.28455150085e-21)
(10.0484517619 -0.0828443411917 -1.24181613639e-20)
(10.0681263315 -0.110448954901 -3.1630090893e-20)
(10.0897287719 -0.142820757614 -3.07942146739e-22)
(10.112700874 -0.18066525209 7.10518446515e-20)
(10.1363207562 -0.224703292646 -9.7615875341e-20)
(10.1596823607 -0.275667295874 1.84060989303e-19)
(10.1816039282 -0.3342206724 -1.0556537093e-19)
(10.2005694017 -0.400830458827 -1.06915996294e-19)
(10.2147383514 -0.475610812957 1.33049724755e-19)
(10.2220266594 -0.558143170771 0)
(10.2202971358 -0.647302161301 1.29859510284e-20)
(10.2076181185 -0.741176719052 -1.96995919917e-19)
(10.1827153193 -0.837074613424 2.08782300378e-19)
(10.1449308547 -0.932070531591 6.86882602215e-21)
(10.0004922255 -0.00904556453723 0)
(10.0047410857 -0.0274430687079 -2.7379280682e-21)
(10.0131125619 -0.0473198667767 1.37300528743e-21)
(10.0247168909 -0.0698236600231 1.40274009119e-21)
(10.0384894048 -0.0955831682849 2.76294575503e-21)
(10.0538194495 -0.125153539732 2.86155356051e-21)
(10.0702186525 -0.159138298997 5.58658772346e-21)
(10.0870564185 -0.19811406406 1.1344631441e-20)
(10.1035505839 -0.242598342049 -5.77467355095e-21)
(10.1187764341 -0.293029113642 -1.16270512157e-20)
(10.1316332616 -0.349700838107 -1.16905387574e-20)
(10.1408341511 -0.412670244065 -9.22133877498e-20)
(10.1449528088 -0.481655661694 7.99855733365e-20)
(10.1425225004 -0.555946825087 -1.11755148895e-20)
(10.1321931142 -0.634346651345 1.69041014248e-19)
(10.112900014 -0.715190886648 -1.96824203217e-19)
(10.0841264265 -0.796415287441 1.74608837224e-19)
(10.0457756747 -0.876004042495 -1.66015339965e-19)
(10.0003647997 -0.0106085516668 2.8845182862e-22)
(10.0034704275 -0.0320044460796 -3.02999141561e-21)
(10.0095600718 -0.0544808186363 3.64616066323e-21)
(10.0179560712 -0.0791457645209 1.22624250684e-21)
(10.0277543249 -0.106678644754 -1.10603996843e-20)
(10.0383167076 -0.137603251358 9.82779315444e-21)
(10.049095673 -0.172411515957 -7.40658250379e-21)
(10.0594475104 -0.21152580768 -4.99337089552e-21)
(10.0686173075 -0.255259727031 -3.47307119055e-20)
(10.0757634751 -0.303794272603 3.94278184772e-20)
(10.0799628096 -0.357137529902 0)
(10.0802283569 -0.415071105014 0)
(10.0755635988 -0.477102749777 0)
(10.0650452645 -0.542440022267 9.94834119239e-21)
(10.0479297997 -0.609996216137 -8.0733322319e-20)
(10.0237416461 -0.678446751101 1.50768555121e-19)
(9.99241633749 -0.746298564838 -7.44496313824e-20)
(9.95411760319 -0.812237585436 -7.25015919201e-20)
(10.000230614 -0.0118528808356 -2.55584841482e-22)
(10.0021644921 -0.0356253065028 2.65823280326e-21)
(10.0059022404 -0.0601189823008 -2.64620625572e-21)
(10.0109284654 -0.0863304560573 4.25278121412e-21)
(10.0165190915 -0.114906577763 -1.27694981448e-20)
(10.0220780369 -0.146307068318 1.06281076969e-20)
(10.0270655818 -0.180904248859 2.14938095903e-21)
(10.0308910178 -0.218968491098 0)
(10.0329042486 -0.260638279415 -4.29907222167e-21)
(10.0324240072 -0.305904355168 -3.15952283645e-20)
(10.0287600986 -0.354593109776 3.35174631563e-20)
(10.0212401507 -0.406348069228 0)
(10.0092533077 -0.460620738426 -6.14968489721e-20)
(9.99230413058 -0.516679783198 6.52368151546e-20)
(9.97007250882 -0.573641644617 4.12316255756e-21)
(9.94244510082 -0.630528103509 6.62906430533e-20)
(9.90959454643 -0.686314191957 -6.38734404898e-20)
(9.87176904044 -0.740190136424 -5.64720049837e-20)
(10.0000891856 -0.0126177753257 -4.38931425766e-22)
(10.0008411366 -0.0378163697573 2.30984235272e-22)
(10.0022298299 -0.0633991184718 -1.36876891713e-21)
(10.0038758939 -0.0902019167524 1.82487631136e-21)
(10.0052455074 -0.118780046525 2.72291702713e-21)
(10.0058395898 -0.149506244902 -3.63181097809e-21)
(10.0051897744 -0.182641712057 0)
(10.0028168373 -0.21833278486 -1.43883118731e-20)
(9.99822977064 -0.256595494963 1.25734521975e-20)
(9.9909485563 -0.297311811264 -1.81326029019e-21)
(9.980527575 -0.340230831524 2.80352269039e-20)
(9.96657860284 -0.384972376346 -2.79248552248e-20)
(9.94879793189 -0.431038219578 -5.2021411363e-21)
(9.92699336896 -0.477834223153 -2.68088580486e-20)
(9.90111133768 -0.52470291258 2.67091070274e-20)
(9.87123624096 -0.570967586569 0)
(9.83764084058 -0.61595729738 5.18165871668e-20)
(9.80057189873 -0.659201516977 -1.880832413e-21)
(9.99996251782 -0.0127715090393 -4.27371837463e-22)
(9.99967823388 -0.0381635612858 6.71084687935e-22)
(9.99902061725 -0.0636200336663 0)
(9.99772272908 -0.0898064647248 0)
(9.995427614 -0.117171155556 0)
(9.99175580236 -0.146007566426 0)
(9.98634508294 -0.176498059151 -8.61888163964e-22)
(9.97885211916 -0.208713990221 0)
(9.96895227163 -0.242612634936 8.59307447105e-21)
(9.95635328094 -0.278043504497 -7.65851294065e-21)
(9.94081375448 -0.314758983992 1.33558019346e-20)
(9.92215786403 -0.352426825788 -1.33116805412e-20)
(9.90028860898 -0.390647418416 2.75237756209e-20)
(9.87519763706 -0.428976488985 -1.97744629651e-21)
(9.84697490127 -0.466950790255 -5.00946949562e-20)
(9.81579467427 -0.504118168182 2.39901393962e-20)
(9.78195452393 -0.540046940003 0)
(9.74567376099 -0.574473179563 3.8726743159e-23)
(9.99987763697 -0.0124027555197 5.76689192454e-23)
(9.9988663928 -0.036961249936 0)
(9.99674778856 -0.0613217290818 -9.65615519911e-22)
(9.99333210593 -0.0859896743444 1.20240795136e-21)
(9.98838990295 -0.111323187946 1.91209994341e-21)
(9.98164185897 -0.137569420356 -8.75868574492e-24)
(9.97282773298 -0.164872568833 2.82855927214e-21)
(9.96172508689 -0.193273233739 -3.29560593752e-21)
(9.94814390754 -0.222718558361 0)
(9.93193384886 -0.253073290214 9.29487722215e-22)
(9.91299635278 -0.284129157293 0)
(9.89129340776 -0.315620507959 8.7559672802e-22)
(9.86685178529 -0.347242383423 1.38472143296e-20)
(9.83976384859 -0.3786694321 -1.12241307485e-20)
(9.81018954135 -0.409574899446 8.23590720387e-22)
(9.77833842787 -0.439650958298 -1.21078460041e-20)
(9.74450435655 -0.468610536285 2.98350948624e-22)
(9.70888031486 -0.49630329841 1.35405903459e-20)
(9.99982686279 -0.0117544696777 -1.89111177178e-22)
(9.99836108031 -0.0349607922517 1.31257519428e-22)
(9.99531671784 -0.0577680019132 0)
(9.99054054191 -0.0805197316114 -2.62604019554e-22)
(9.98386195268 -0.103515368299 7.77067505505e-22)
(9.97506848545 -0.126995719376 -3.08757250062e-21)
(9.96399004564 -0.15109483135 2.05163561901e-21)
(9.95050174758 -0.175847862552 -2.02470415114e-21)
(9.93451027853 -0.201215783897 2.508302154e-21)
(9.91596351789 -0.227093942357 0)
(9.89486060754 -0.253320893478 7.73085738016e-21)
(9.87125190624 -0.27969241804 -8.68907202135e-21)
(9.84523771849 -0.305978578584 -7.45062750257e-21)
(9.81696600487 -0.331940010854 1.37971277543e-20)
(9.78663131569 -0.357341765468 -1.53253846679e-20)
(9.75445612589 -0.381967516393 7.11517648727e-21)
(9.72072382905 -0.405618194747 -6.77573900289e-21)
(9.68560841459 -0.428205709271 6.24059224149e-21)
(9.99979684378 -0.011002797713 -3.37908236545e-23)
(9.99807106444 -0.032690983852 0)
(9.99451467531 -0.0538007484657 1.40607818692e-22)
(9.98895832423 -0.0744906741885 0)
(9.98120664833 -0.0950653434604 -1.37450323588e-22)
(9.9710917054 -0.115800715487 2.82059666155e-22)
(9.9585314635 -0.136825576082 0)
(9.94347669502 -0.158180048166 -2.79996217875e-22)
(9.92590132565 -0.179855542297 -5.46005964275e-22)
(9.90582558327 -0.201787201212 0)
(9.88331860732 -0.22385651615 0)
(9.85848989308 -0.245910408835 0)
(9.83148605569 -0.267777612302 5.03366023095e-22)
(9.80248821086 -0.289281230379 -4.92993475149e-22)
(9.77170997229 -0.310249532823 -3.84938472273e-21)
(9.73937899795 -0.330526851237 -3.43223439238e-21)
(9.70576889075 -0.349970647478 1.48209692708e-20)
(9.67104169568 -0.368528609914 -7.19891834594e-21)
(9.99977556674 -0.0102383625078 1.85171780437e-23)
(9.99792922465 -0.0304717564698 -1.14225843364e-22)
(9.99420820676 -0.0499331768133 -5.64880919364e-25)
(9.98833044945 -0.0685291419923 -3.78447743571e-22)
(9.97997533529 -0.0866989814638 1.51232378302e-22)
(9.96904088343 -0.104803414504 3.02399258565e-22)
(9.95554524048 -0.122951290484 -1.48551052079e-22)
(9.93948343203 -0.141186882845 8.78516912314e-22)
(9.92087002055 -0.159538925223 -1.17718611352e-21)
(9.89978462226 -0.177982032401 0)
(9.87635304839 -0.196436865423 -2.25702958645e-21)
(9.8507274407 -0.214793358309 2.53627664744e-21)
(9.8230857037 -0.232926853316 -5.54090876435e-22)
(9.79363073646 -0.250707193674 5.43254310783e-22)
(9.76258755302 -0.268007568728 0)
(9.73018555051 -0.284713302478 3.55330516158e-21)
(9.69669018984 -0.300719565145 -4.06689683327e-21)
(9.66225517819 -0.315994595474 2.39190986217e-22)
(9.99973646791 -0.00948701982393 2.93473519708e-23)
(9.99784637698 -0.0284603301696 -4.08800458312e-23)
(9.99428688313 -0.0464636700638 0)
(9.98848502669 -0.0630186773073 8.17592608623e-23)
(9.97984664422 -0.0788745437836 8.09592268139e-23)
(9.968421966 -0.0944802021141 0)
(9.95436098333 -0.109930587614 1.61443218055e-22)
(9.93767023742 -0.125305638369 -1.58821191649e-22)
(9.9183843038 -0.140674963817 0)
(9.89663318283 -0.156037003912 1.55296668073e-22)
(9.87258741829 -0.171338521927 -1.2196205004e-21)
(9.8464298623 -0.186503555086 1.91945620757e-23)
(9.81836122163 -0.201443424568 2.3801121399e-21)
(9.78860025779 -0.216062900483 -1.03484964561e-21)
(9.75737973455 -0.230268259115 0)
(9.72492975195 -0.243975393401 2.81585648094e-22)
(9.69150965664 -0.257106468848 -1.35808547259e-22)
(9.65726917715 -0.269643519318 -1.99131483614e-22)
(9.99965866568 -0.00878909716256 -1.04124180109e-23)
(9.99773853257 -0.0267605371401 4.32071805194e-23)
(9.99459703 -0.0434529558083 -1.63893400251e-25)
(9.98920839293 -0.0579493246019 0)
(9.98051951989 -0.0717545035971 -8.71411318105e-23)
(9.96884150339 -0.0851105649251 2.58943229543e-22)
(9.95444510948 -0.0980437942457 -2.59448817293e-22)
(9.93732951773 -0.11074938702 5.13005973702e-22)
(9.91756578047 -0.123379627968 -1.74383959397e-22)
(9.89533671749 -0.135960263402 -5.08538731137e-22)
(9.87084200873 -0.148458710023 -1.65957481236e-22)
(9.84428090433 -0.160823580434 -3.29842244723e-22)
(9.81586839401 -0.172990117944 0)
(9.78583364973 -0.184886005533 -1.5966694645e-22)
(9.75441385646 -0.196439609048 -1.55383509584e-22)
(9.72183882121 -0.207587254163 0)
(9.68836253534 -0.2182688085 1.25603368697e-21)
(9.65413080328 -0.22847579768 -1.24004166831e-21)
(9.99962987385 -0.00814467503532 0)
(9.99767965316 -0.0262641004811 1.13685608102e-23)
(9.99508870286 -0.041176406133 -2.31196163034e-23)
(9.99009753643 -0.053179187674 -5.10374150888e-26)
(9.9813794461 -0.0650094406971 -4.64743188097e-23)
(9.96963656246 -0.0764662488646 4.56657324662e-23)
(9.95509022986 -0.0872989018043 1.84399635644e-22)
(9.93764942709 -0.0977332240039 -2.25670183045e-24)
(9.9174470947 -0.10797691906 -7.15771541928e-25)
(9.89473615376 -0.118096601934 -3.63253179275e-22)
(9.86974182277 -0.128097567564 5.48324379519e-22)
(9.84267755916 -0.137964225506 -3.55753720074e-22)
(9.81377216792 -0.147659714906 4.46904077182e-22)
(9.78326450514 -0.157134511234 0)
(9.75139617549 -0.166336561267 1.72699273379e-22)
(9.71839897482 -0.175219219958 -5.83487397134e-22)
(9.68452470549 -0.183735803476 7.54950322804e-22)
(9.64992994628 -0.191890592652 4.00112960826e-23)
(9.99934345141 -0.00588331613373 0)
(9.99704186518 -0.0265478255398 -2.39344797984e-23)
(9.99533143739 -0.0413431167442 -2.4386096539e-23)
(9.99067855374 -0.0502869704599 2.48496421993e-23)
(9.98158153706 -0.0591257517152 7.47428081929e-23)
(9.96959364195 -0.0678244535125 -1.00919269781e-22)
(9.95479387435 -0.0762327056259 -5.00824818447e-23)
(9.93689056543 -0.0844813542456 1.246194072e-24)
(9.91603240123 -0.0926165390086 -4.93250863945e-23)
(9.8925203459 -0.100625765661 3.03300260229e-22)
(9.86661225217 -0.108508399586 -2.03619124539e-22)
(9.83855009636 -0.116255609423 1.98534531733e-22)
(9.80858923116 -0.12384297278 -3.49957705068e-22)
(9.77698828398 -0.131237906168 -4.90770228953e-23)
(9.74400183423 -0.138406045561 4.84388310005e-23)
(9.70987142229 -0.145317776393 -1.43521321196e-22)
(9.67484916443 -0.151937200189 0)
(9.63909796352 -0.1582806312 -2.29794229089e-23)
(9.99642610784 0.000558591431966 1.50838549432e-24)
(9.99177098838 -0.0184122089583 1.91642565431e-23)
(9.99299262146 -0.0387896008838 -6.51924950331e-24)
(9.9900115331 -0.051453210229 -1.35885635523e-23)
(9.98083263308 -0.0608566749862 0)
(9.96789587738 -0.0674098927193 2.8098068327e-23)
(9.95164645487 -0.0727177121464 -5.74094518412e-23)
(9.93196481755 -0.0777683856605 0)
(9.9091147985 -0.0828330436355 8.6932256991e-23)
(9.88343738866 -0.087960787457 0)
(9.85521297265 -0.0931535299752 5.79023781933e-23)
(9.82471469738 -0.0983808899475 5.76738776855e-23)
(9.79222785876 -0.103594742737 5.74258016822e-23)
(9.75803491191 -0.108745763056 1.69321928353e-22)
(9.72240839037 -0.113788868206 -1.70058651356e-22)
(9.68560813778 -0.118688599441 5.55861475431e-23)
(9.64789125715 -0.123403234568 0)
(9.60948506483 -0.127954332553 -2.24003754053e-22)
(9.98796953695 -0.00718003507976 -8.2006199109e-25)
(9.98208786915 0.00365682116823 0)
(9.98441290096 0.00493490339852 1.5193411003e-23)
(9.98168381223 -0.00757911867268 0)
(9.97200345456 -0.0231282593391 1.61871145531e-23)
(9.95690840272 -0.0356877380071 -3.31921324784e-23)
(9.93664645722 -0.0454399229216 -3.38173782578e-23)
(9.91181268332 -0.0532401446134 -3.3923796513e-23)
(9.88321546853 -0.0596393999106 1.73451476401e-25)
(9.85146000627 -0.0650844893999 0)
(9.816973711 -0.069910297607 -1.02741689413e-22)
(9.78012382984 -0.0743208503914 3.41717034329e-23)
(9.74125301423 -0.0784300940774 -3.5541911061e-23)
(9.70067927967 -0.0823021626218 -1.01398679333e-22)
(9.65869854422 -0.0859715166845 1.99910245331e-22)
(9.61559112798 -0.0894583221037 -1.33754315002e-22)
(9.57161342989 -0.0927606322616 0)
(9.52703635518 -0.0959348233238 -1.41687231546e-22)
(10.0161248252 -0.257606677156 -1.49246877584e-24)
(10.0121908792 -0.258091797123 2.23326023896e-24)
(9.99122009302 -0.197171067125 0)
(9.95860510248 -0.143043053014 0)
(9.92881297883 -0.111748777967 -5.14960153203e-24)
(9.89634683893 -0.0909384974779 9.56843705942e-26)
(9.85919464924 -0.0777135833912 3.16837878605e-23)
(9.81788248324 -0.0697973885896 1.06333911872e-23)
(9.77314000364 -0.0651949144565 2.11949229187e-23)
(9.72552746363 -0.0626562293032 -2.1517278361e-23)
(9.67550263943 -0.06143548197 -4.25404000304e-23)
(9.62348824415 -0.0610603075995 8.418170105e-23)
(9.56987163829 -0.0612241525404 -4.19485632061e-23)
(9.51500063701 -0.0617282184806 -9.93112229139e-24)
(9.45918880991 -0.0624420669415 0)
(9.40272891378 -0.0632768840442 -5.00946284882e-23)
(9.34586613777 -0.0641697949087 4.03708171631e-23)
(9.28890240577 -0.0650907008813 0)
(9.94354852446 0.781806441848 6.48034164064e-25)
(9.95637296541 0.49321524877 -3.15570444552e-24)
(9.89066176877 0.268787231979 0)
(9.7868652863 0.147779689016 0)
(9.67719405474 0.0784595278488 -6.90069795098e-24)
(9.57075939852 0.0391078860203 1.39839192184e-23)
(9.46594413921 0.0159013077082 -1.41079987282e-23)
(9.36378312985 0.00192559052775 -7.14807135583e-24)
(9.2648189919 -0.00668582832095 -7.14133521249e-24)
(9.1688621684 -0.0121745872704 -1.40698769378e-23)
(9.07560651474 -0.0158276249047 2.48399242955e-25)
(8.98480788149 -0.0183782584256 1.42043588764e-23)
(8.89628788942 -0.0202487341254 0)
(8.80991815331 -0.0216871774947 1.38473647081e-23)
(8.72561609568 -0.0228422360523 -2.70609822761e-23)
(8.64332957546 -0.0238029670373 4.08968827742e-23)
(8.56306101858 -0.0246191319306 0)
(8.48474716056 -0.0253472451071 0)
(0.0350425049214 0.0391336276586 0)
(0.0131282457287 -0.00107732035798 0)
(0.0148262864955 -0.032631589055 -9.34512542948e-17)
(0.0462917713749 -0.0271394900031 1.07710138093e-16)
(0.0873464727056 -0.0258870482391 2.10469885155e-17)
(0.14220136587 -0.0307066471801 -1.97063353802e-17)
(0.197671390451 -0.0431657171898 -8.50915167218e-18)
(0.25867495095 -0.0421123785227 7.60761525254e-18)
(0.319955354131 -0.039937237608 0)
(0.383042025645 -0.0427733832601 -1.55105495328e-18)
(0.448455078509 -0.0447542963599 1.40739529512e-18)
(0.51565227841 -0.0452440379998 0)
(0.5836680925 -0.044860407919 -3.00411280008e-19)
(0.65186669461 -0.0439621332377 -7.76382014364e-22)
(0.719712316082 -0.0427659762695 1.30738266113e-19)
(0.786866537059 -0.0414234218734 1.23633643616e-19)
(0.853084688633 -0.0400194060579 4.09938627877e-19)
(0.918198893764 -0.0385973562051 2.78198605416e-20)
(0.982087028084 -0.0371785786867 -3.99105850732e-19)
(1.04465772343 -0.0357732484989 4.07822345327e-19)
(1.10583866284 -0.0343873802965 0)
(1.16557244879 -0.0330253779882 -3.77463495024e-19)
(1.22381149737 -0.0316913236042 0)
(1.2805231858 -0.0303885121968 2.75934321487e-21)
(1.33568345162 -0.0291198394148 -2.67442650917e-21)
(1.3892853793 -0.0278871869574 -3.31749513092e-19)
(1.44132411259 -0.0266923025207 1.50794300641e-25)
(1.49181423537 -0.0255359244876 -6.16380717645e-22)
(1.54076080782 -0.0244193287509 1.50444609177e-22)
(1.58819708309 -0.023342468318 -7.35368135096e-23)
(1.63412934721 -0.0223069056715 -7.19774884915e-23)
(1.67860828945 -0.0213131581729 -2.88701579827e-19)
(1.72165550891 -0.0203587715572 2.8323435504e-19)
(1.76329727338 -0.0194415217137 -2.78157875401e-19)
(1.80357016728 -0.0185609383901 4.17411405048e-24)
(1.84251053111 -0.0177174081024 -4.10827274184e-24)
(1.88015564385 -0.0169106509548 0)
(1.91654358786 -0.0161398012139 -5.2221574748e-19)
(1.95171234462 -0.015403739531 -5.15053179594e-19)
(1.98569963053 -0.0147012575718 -5.083486683e-19)
(2.01854301289 -0.0140310975268 5.02066453888e-19)
(2.05027987742 -0.0133920260502 4.96174196436e-19)
(2.08094725114 -0.0127828015678 0)
(2.11058167002 -0.0122022162947 0)
(2.1392191538 -0.0116490455617 -4.80558199915e-19)
(2.16689518772 -0.0111221260326 0)
(2.19364463524 -0.0106202809136 0)
(2.21950159147 -0.0101424038124 0)
(2.24449927701 -0.00968739253865 0)
(2.26866994741 -0.00925420614548 0)
(2.29204493219 -0.00884182562112 4.56637472992e-19)
(2.31465454363 -0.00844924815654 0)
(2.33652802965 -0.00807546987892 4.50338173516e-19)
(2.35769371266 -0.00771969751956 4.47444197019e-19)
(2.37817909133 -0.00738106554451 4.44706661225e-19)
(2.39801072952 -0.00705873362763 4.42115972316e-19)
(2.41721407693 -0.00675186612494 0)
(2.43581344898 -0.00645966663731 0)
(2.45383208217 -0.00618135061045 0)
(2.47129217584 -0.00591615395726 4.33055021957e-19)
(2.48821492723 -0.00566331873855 0)
(2.50462038849 -0.00542209358253 0)
(2.52052742816 -0.00519172946542 4.27429540649e-19)
(2.53595351526 -0.00497145315108 -4.25746140665e-19)
(2.55091470406 -0.00476048572589 0)
(2.56542528572 -0.00455800042749 0)
(2.5794978522 -0.00436316063903 0)
(2.59314262601 -0.00417498127218 -4.19856228606e-19)
(2.60636753684 -0.00399247079537 0)
(2.61917702577 -0.00381435325599 0)
(2.63157225634 -0.0036393402759 4.16247723869e-19)
(2.64354897928 -0.00346561528445 -4.15193284304e-19)