/*--------------------------------*- C++ -*----------------------------------*\
| =========                 |                                                 |
| \\      /  F ield         | OpenFOAM: The Open Source CFD Toolbox           |
|  \\    /   O peration     | Version:  2.3.1                                 |
|   \\  /    A nd           | Web:      www.OpenFOAM.org                      |
|    \\/     M anipulation  |                                                 |
\*---------------------------------------------------------------------------*/
FoamFile
{
    version     2.0;
    format      ascii;
    class       volScalarField;
    location    "400";
    object      epsilon;
}
// * * * * * * * * * * * * * * * * * * * * * * * * * * * * * * * * * * * * * //

dimensions      [0 2 -3 0 0 0 0];

internalField   nonuniform List<scalar> 
10011
(
1739.51971172
3022.16543945
4034.82819065
4725.13735503
5151.76438385
5390.57111518
5505.66661349
5544.29443003
5539.12421551
5512.19940342
5478.57658751
5449.20618329
5433.23098476
5440.008179
5471.51521372
5531.89155859
5622.86833204
6605.05749988
187.180267061
344.286878679
469.488023123
568.684448327
639.785232594
686.396589731
714.724819629
730.480371444
738.019752714
740.384082397
739.543017467
736.619685588
731.988553595
723.677413328
713.94005347
703.551750703
683.030037396
649.102894789
41.8147808265
72.3031016248
98.0055567267
119.504003715
136.686646654
149.679651746
159.003332082
165.297847856
169.16880354
171.122887528
171.535082929
170.625564616
168.131646489
164.806103505
161.132680961
156.610640212
150.317854221
141.369442658
20.348544853
27.9133942192
35.2743443117
41.9204323411
47.6674458833
52.4516250986
56.3035450537
59.3002884645
61.5330345674
63.0879308078
64.0117029383
64.3098412639
64.2808601462
63.9530918575
63.3396863647
62.422125983
61.1664582298
59.5558786944
16.0512987167
18.1891531722
20.6081970377
23.0119058974
25.2547581596
27.2613947951
29.0014719204
30.4703372673
31.674935272
32.6133822099
33.3190207808
33.8473389422
34.221244891
34.4606710498
34.5857373399
34.6209061617
34.5920310862
34.4638287485
15.0109722316
15.5370277393
16.2889445329
17.1443758676
18.021188518
18.8664610473
19.6486571652
20.3502626529
20.9567833913
21.4798852092
21.9270988838
22.3056543302
22.6248194433
22.8964279618
23.1361581165
23.3642871999
23.5970256989
23.7933116519
14.7573959922
14.7792350761
14.9146702729
15.1333598815
15.4040419018
15.7000008179
16.0003921157
16.2900156627
16.5656189354
16.8229992305
17.0613673573
17.2825032938
17.490721814
17.6931037876
17.8996181358
18.1219162366
18.365120867
18.593437094
14.705797836
14.5996746951
14.5491394734
14.5494723627
14.5910375434
14.662467635
14.7531062839
14.8557783942
14.9650190059
15.0773240659
15.1911633167
15.3069287126
15.4269586723
15.5555435164
15.6985767594
15.8620121502
16.0457799156
16.2211618273
14.6919255086
14.5453180107
14.4267739798
14.3372859416
14.2752582364
14.2372627575
14.219640177
14.2186802154
14.2313995828
14.2557650696
14.2908562719
14.336983866
14.3957479282
14.4699435968
14.5630637364
14.6778461565
14.8119006479
14.9420091982
14.6879437289
14.5281762416
14.384415503
14.2575014864
14.1477164753
14.0548195887
13.9780301482
13.916385101
13.8690514837
13.8355453364
13.8159030306
13.8108034056
13.8215960784
13.850148918
13.8983537978
13.9669768174
14.0527442662
14.1377933654
14.6869065627
14.5234627959
14.3719182184
14.2322881679
14.1046926833
13.9892669786
13.8860694306
13.795151298
13.7166650798
13.6509533399
13.5986208448
13.5605730707
13.5379758354
13.5320724703
13.5437746697
13.5728750281
13.6162342935
13.660843977
14.686646532
14.5221934763
14.3684455878
14.2250563302
14.0918182374
13.9686814609
13.8556945545
13.7530143401
13.6609413432
13.5799413196
13.5106487194
13.4538406724
13.4103537108
13.3809104209
13.3658254954
13.3645264407
13.3744850757
13.3866503554
14.6866145439
14.5217932107
14.3672573019
14.2225815646
14.087425299
13.9615873755
13.8449842602
13.7376500425
13.6397490089
13.5515748981
13.4735300137
13.4060787293
13.349663785
13.3045749071
13.2707658752
13.2475913123
13.2332018079
13.2214966143
14.6866917218
14.5216732509
14.3666780492
14.2212697015
14.0850638186
13.9577786665
13.839230544
13.7293302588
13.6280838871
13.5355836806
13.4519830468
13.3774535772
13.3121216757
13.2559848515
13.2088118695
13.1700094624
13.1382948262
13.109643632
14.6868416728
14.5217060808
14.366369839
14.2203810715
14.0833290632
13.9548795002
13.8347756685
13.7228335156
13.6189360604
13.5230212926
13.4350600736
13.355023801
13.2828429642
13.218359512
13.1612773108
13.1110976559
13.0669583781
13.0262600706
14.6870306891
14.5218322166
14.366238233
14.2197694214
14.0819877585
13.9525173374
13.8310458775
13.7173193619
13.6111340896
13.5123246072
13.4207462796
13.3362530609
13.2586722378
13.1877787332
13.1232716617
13.0647437754
13.0116253441
12.9622893946
14.6872133047
14.5219840244
14.3661992596
14.2193469388
14.0809610299
13.9506323228
13.8280081021
13.7127863386
13.6047073342
13.5035428586
13.4090827183
13.3211195484
13.2394332675
13.1637767702
13.0938644492
13.0293580424
12.9698788967
12.9144595457
14.6873335591
14.5220792125
14.3661522839
14.2190117114
14.0801687174
13.9491913039
13.8257013404
13.709368125
13.5999002361
13.4970357999
13.4005315747
13.3101517174
13.2256572227
13.1467968494
13.0733006726
13.0048738254
12.9412511164
12.8818797874
14.6873731618
14.5220854626
14.3660474634
14.2186979064
14.0795351786
13.9481161515
13.8240501792
13.7069923452
13.5966357105
13.4927021856
13.394932934
13.3030792512
13.2168945199
13.1361275964
13.0605186502
12.9897968792
12.9237605064
12.8621000611
14.6873622056
14.5220360007
14.365905418
14.2183988329
14.0790142365
13.9473090862
13.8228914767
13.7054143128
13.5945678605
13.4900705728
13.3916601743
13.299085778
13.212101167
13.1304593228
13.0539092568
12.9821955734
12.9151535729
12.8526154501
14.6873340129
14.521978387
14.3657877232
14.2182045649
14.0787571533
13.9470322286
13.822664837
13.7053338543
13.5947528117
13.4906591241
13.3928050774
13.3009505062
13.2148567444
13.1342818803
13.0589783666
12.9886937112
12.9232742534
12.8626106323
14.6873315306
14.5220595401
14.3660899022
14.2190063128
14.0804960861
13.9502847593
13.828121388
13.713770885
13.6070006916
13.5075706431
13.4152281089
13.3297056309
13.2507198315
13.1779714553
13.1111473227
13.049924233
12.9940761518
12.9433812328
14.6876036723
14.5234666547
14.3701267705
14.2278626086
14.0968888579
13.9772282149
13.8687196168
13.7710464659
13.6837650693
13.6063389316
13.5381726077
13.4786387004
13.4270976736
13.3829120506
13.3454571451
13.3141280411
13.2884384458
13.2677498348
14.6903437821
14.5356959474
14.4013916846
14.2891581911
14.1991806794
14.1304079995
14.0810524378
14.0489917821
14.0320287622
14.0280493804
14.0351090883
14.0514674891
14.0755920182
14.1061457935
14.1419694956
14.1820586149
14.2256201659
14.2713786535
14.7129874592
14.6219970643
14.5934652555
14.622361714
14.6992714972
14.8136638417
14.9558278065
15.1176540226
15.2926862099
15.475918429
15.6635381482
15.8526763849
16.041191129
16.2274926537
16.410409397
16.589082625
16.7629635602
16.9305808066
14.8729304333
15.1283328998
15.5598231731
16.1027044919
16.7087207477
17.3436310582
17.9847345492
18.6176860311
19.2335668448
19.8269575696
20.3947481222
20.9353609903
21.4482287071
21.9334408532
22.3915048885
22.8231784652
23.229476659
23.6099627447
15.8787571886
17.7247615477
19.8405924722
22.0042636773
24.1254354767
26.1579162362
28.0792363934
29.8801011312
31.5578048598
33.1133683571
34.5502588327
35.8735601652
37.089341762
38.2041719911
39.2247294342
40.1574656485
41.0085813012
41.7825157236
22.1640426493
31.1460482768
39.4583723297
47.1939293227
54.4155683796
61.0936982018
67.2120276375
72.7701257202
77.7776036314
82.2543301096
86.2296135266
89.7395354488
92.8238957521
95.5235036711
97.8778513587
99.9227506127
101.687498887
103.186468356
68.0732997157
115.223093433
155.523060072
193.083468702
228.002655216
259.584425431
287.481844317
311.634431685
332.172550329
349.362422817
363.551471897
375.118788366
384.439185951
391.860781767
397.69203766
402.192063202
405.550741615
407.808170607
723.169781413
1065.38187544
1375.37498717
1653.97202776
1910.21857992
2136.9848263
2330.82644142
2491.30356194
2620.0642235
2719.98553894
2794.52176829
2847.26189794
2881.65439079
2900.85441514
2907.65575895
2904.47567029
2893.3999381
2875.93312401
114.464369262
42.2790409899
52.579596366
46.7804701801
46.3098296879
46.0537708516
45.9877655319
46.0917459343
46.3310311365
46.6715330336
47.0882520407
47.564589565
48.0897963702
48.6574369261
49.2645104494
49.9106900302
50.5975292478
51.3276879431
52.1041756599
52.9296782403
53.8061114658
54.7348805273
55.7190072476
56.7697358618
57.9221229142
59.2933096901
61.1403546437
63.9917656391
68.252344465
139.58720665
66.5127826718
44.0347275713
33.3897608636
25.590857125
21.7759220728
19.1240628835
17.18607368
15.822903361
14.8842214869
14.2509228833
13.8479114561
13.6261605017
13.5506491845
13.5955510203
13.7417786671
13.9751450205
14.2849773259
14.6631502359
15.1034343622
15.6010977897
16.1527747253
16.7567217948
17.4137542248
18.1295058261
18.9193277541
19.8194233362
20.9294986102
22.3930805733
24.5163756951
27.9153702819
34.4178156602
170.331248709
88.9644662296
66.3411255519
47.3192120689
36.21597181
27.6655602637
22.2257255004
18.7131602329
16.6498020293
15.3829333198
14.2995605092
13.3584486457
12.6017820926
12.0103799424
11.5511666898
11.2017404738
10.9469775492
10.7747545255
10.6750099899
10.6395674423
10.6618018786
10.7362914356
10.8585746711
11.0250225743
11.2328293738
11.480182755
11.7667562107
12.0948407004
12.4718022132
12.9153160252
13.4640539694
14.2012301336
15.2899169482
16.9984301009
19.7872085399
24.6890470179
185.580645138
97.6317910951
73.930779349
53.5801157946
41.6760292769
32.4333098166
26.3372725301
21.9079235079
18.73029407
16.5403300117
15.0484093477
14.0745027223
13.5167445341
13.2047052788
12.8921808152
12.5531412916
12.2418151736
11.9744511886
11.7460053025
11.5524268757
11.3921502177
11.2636987286
11.1653836957
11.0956697897
11.05329602
11.037253003
11.0467761591
11.0813983474
11.1410917372
11.2265837005
11.340027591
11.4864138186
11.6765242336
11.9329324446
12.3011788911
12.8674342532
13.7805582205
15.2600273294
17.5888698033
21.2741637093
199.493364549
105.356982358
80.5754821585
58.884202673
46.0797970683
36.0222274329
29.3637868907
24.4858059581
20.9343687981
18.4081151561
16.5538513279
15.1845659473
14.1892788565
13.4864097174
13.0293388362
12.7706939758
12.6737682711
12.6647887708
12.6236093073
12.5247951981
12.4044366466
12.2843979776
12.1690994928
12.0601598785
11.9597927073
11.8696203728
11.7904666565
11.7227910643
11.6669649877
11.6233760099
11.5925136332
11.5750982047
11.5723064636
11.586201875
11.6206077819
11.6829086332
11.7876892783
11.9634985561
12.2633210826
12.7753218183
13.6233779554
14.9526678216
16.9066388483
19.7212763515
213.522399965
112.919446108
87.0184685068
64.0095142078
50.3440522811
39.5039463944
32.2961684218
26.9702918101
23.045739395
20.2241056142
18.1358919846
16.563181251
15.3747230605
14.4716829703
13.7918497446
13.2937167321
12.9386273978
12.6987626382
12.565828849
12.525223782
12.5573177995
12.6217378911
12.6551616281
12.6368284975
12.5862076397
12.521099724
12.4481804664
12.3706393324
12.2915103993
12.2132530581
12.1375365365
12.0655577164
11.9983153718
11.9367521181
11.8818761355
11.8349355982
11.7977156905
11.7731032501
11.7662272189
11.7867571555
11.8532048103
11.9996833857
12.2830430215
12.7830197553
13.5875514563
14.7751648123
16.4140044885
18.6225159635
239.052557732
130.627707262
110.417011707
92.3426646027
69.2807422504
54.6118110867
42.950096799
35.1865906307
29.4073523452
25.1076078525
21.9983971425
19.6906394319
17.9368392727
16.5939290016
15.558177366
14.7586276913
14.1426710959
13.6628266366
13.2840029649
12.9931168296
12.7810574622
12.6331954478
12.5386348745
12.496649037
12.5025300118
12.5445231084
12.5984880977
12.6292371732
12.621408901
12.5838897532
12.5287000671
12.4620638183
12.387364907
12.3075250126
12.2249971491
12.1415939745
12.0586879736
11.9774435085
11.8989705693
11.8244673386
11.7554294988
11.6940190542
11.6437907626
11.6111619541
11.6082198898
11.6572983666
11.7962821394
12.0801319659
12.572496686
13.3306965873
14.4006994893
15.8187386363
17.6489467275
258.381872131
141.652415956
120.481506484
101.558824548
76.9923443098
61.3948706767
49.0670707445
41.0302047589
34.9425378801
29.9132166857
25.9426837531
22.9755931056
20.7149865445
18.9567869745
17.5813505192
16.4994278251
15.6468024558
14.9722518037
14.4300704949
13.9856251681
13.6235397285
13.3310070281
13.0902831313
12.8882714042
12.7233926163
12.5955261887
12.4999893468
12.4327846901
12.3948795493
12.3847049836
12.3948638332
12.4102755936
12.4104581709
12.384577573
12.3358410854
12.2714646417
12.1962030144
12.1129193546
12.0239890492
11.9314502549
11.8368976692
11.7415956923
11.6466553061
11.5531774845
11.4624042171
11.3759569387
11.2962933504
11.2276434431
11.1778597954
11.1616110421
11.2045905732
11.3463155636
11.6372496526
12.1296557457
12.8682979462
13.885212017
15.1926919911
16.8126908783
277.74156397
153.000745499
130.583412997
110.609777787
84.3541098765
67.6874186148
54.3723395572
45.6624833129
39.0409834405
33.5439543592
29.1910837497
25.9428958117
23.4534260085
21.4488672718
19.8023005938
18.4612012965
17.3761509127
16.5004364372
15.7912895823
15.2076275324
14.7174293211
14.3061985318
13.9609035451
13.6640982795
13.4022471189
13.1718490266
12.9702939623
12.7911035334
12.6295113932
12.4866584675
12.364573947
12.2624819786
12.179094354
12.1151865127
12.0698412586
12.0380811931
12.0102342765
11.9739074426
11.9215945306
11.8537401977
11.7741895931
11.6860888267
11.5915257229
11.4922190369
11.3896725805
11.2851201292
11.1795861375
11.0740139261
10.9693929767
10.8669174153
10.7682682659
10.6762029874
10.5957778033
10.5366212965
10.5163838307
10.5643630584
10.7226800496
11.0423658921
11.5736683286
12.3517527148
13.3863965807
14.6618949774
16.1684410602
297.866246955
164.607754854
140.780440793
119.694692621
91.7501495827
74.0571892218
59.777305193
50.3993050751
43.2309797648
37.233701981
32.441693983
28.8371543561
26.0719123862
23.8397104989
21.9942761622
20.4799267962
19.2447719626
18.2292911473
17.3818357968
16.6661190103
16.0537994548
15.5236347386
15.0661224479
14.6707729253
14.3217927323
14.0064572464
13.7211865931
13.4628955492
13.2250060648
13.0022058891
12.7941858674
12.601241122
12.4214764258
12.2533773194
12.0983150582
11.9582323852
11.8335613939
11.7239407713
11.6296375374
11.5497529814
11.4807183723
11.416169621
11.3483110162
11.2719115624
11.186196673
11.0928789078
10.993760743
10.8901656913
10.7831991842
10.6738523001
10.5629769928
10.4513213943
10.3396223878
10.2287217918
10.1197450003
10.0144699333
9.9161369689
9.83109161841
9.77164675231
9.76008790285
9.83250105009
10.0390402754
10.435194405
11.0624344322
11.9309816509
13.0210054013
14.2961568087
15.731319288
320.272384699
177.203276327
151.654394469
129.262483355
99.4670263484
80.7001018309
65.4146299626
55.3523153718
47.6251571341
41.1115240572
35.8593914979
31.8776652212
28.8207943853
26.3451159283
24.2832348946
22.5770229217
21.1766952802
20.021465156
19.0518042988
18.2252394394
17.5109397764
16.886178326
16.3377469491
15.8545708681
15.4235932793
15.0311065012
14.6678780811
14.332082502
14.0216143368
13.7307582469
13.4546129061
13.1927291682
12.9450300067
12.7094057115
12.4838818582
12.2688141064
12.0649934726
11.872142694
11.6899663405
11.5194941546
11.3620864917
11.2182867414
11.0879613369
10.9709426083
10.8662210293
10.7711141522
10.6812963847
10.5916749289
10.4985429647
10.4006967813
10.2986187699
10.193151078
10.0849969078
9.97476794293
9.86303606553
9.7503241824
9.63713167914
9.52400825539
9.41167574721
9.30126651906
9.19486797952
9.09672417324
9.01560589176
8.96882566717
8.9875688041
9.12027031171
9.42583358111
9.95173387723
10.7118595448
11.6848296923
12.8302065471
14.1050101393
15.4800893459
350.46435479
195.793115504
172.845390984
160.900055195
140.265654525
108.340549559
87.9918053547
71.4228286223
60.5645865998
52.2078533475
45.1159140581
39.3558910013
34.9747842847
31.6207385466
28.9016541553
26.6236841423
24.72489717
23.1579145346
21.8617286086
20.7680205734
19.8280604751
19.0096216477
18.2903346602
17.6565847149
17.0950132855
16.5905197171
16.1284418187
15.6990981093
15.2994473356
14.9274423071
14.5781544685
14.2453441331
13.9252286755
13.6180541692
13.3242241714
13.0421510216
12.7701600304
12.5085131716
12.2577367212
12.0173016196
11.7865438219
11.5658047431
11.3557082805
11.1563856085
10.9678867392
10.7908223501
10.6259450652
10.4735487819
10.333428512
10.2051306162
10.0875926281
9.97873212503
9.87551617947
9.77451245148
9.67304713353
9.5698733074
9.46483727743
9.3581760621
9.25015629101
9.14103748552
9.03108844642
8.92058730181
8.80984792659
8.69929762444
8.58964186586
8.48224453407
8.38001905654
8.28936617076
8.2239186253
8.21048071957
8.29458244408
8.53637937481
8.98856441108
9.67024796029
10.5619620839
11.6213202508
12.801540129
14.0624131359
15.3764445643
379.742138429
212.091544467
187.19533352
174.559373856
152.776163882
118.783011911
97.3167571959
79.8558601176
68.7171428311
60.4267508782
53.2669335664
46.7344016896
41.2159854211
36.9286142241
33.5999732246
30.8627665775
28.5338578372
26.563463839
24.9172397747
23.5432191158
22.3721489489
21.3533742847
20.4556400885
19.6588500892
18.9513062416
18.3189805981
17.7460046655
17.2180460493
16.7261891036
16.2676506085
15.8398762744
15.4374161018
15.0538006032
14.6851802748
14.3312636654
13.9922425354
13.6665197159
13.3514558351
13.0455376067
12.7492526848
12.4633288115
12.1875256322
11.921382908
11.6651895239
11.4193643619
11.1838203424
10.9583185924
10.7430280755
10.5382497428
10.3440821066
10.1605529287
9.98791385599
9.82643979369
9.67614789693
9.53670906984
9.40752631721
9.28757854721
9.17523471755
9.06832020378
8.9644652672
8.86172453054
8.75897916167
8.65580304614
8.55210136282
8.44787388515
8.34315869284
8.23803243055
8.13261965869
8.02713439128
7.92199536105
7.81810430393
7.71751801574
7.62500330256
7.55132508597
7.51912440875
7.56982600957
7.76271355641
8.15484206525
8.77201917223
9.59916738849
10.5945752917
11.7092355124
12.8994819198
14.1305048373
15.3795070206
413.180676513
231.498871128
206.198426266
198.544974632
189.996001829
167.332498715
130.169364609
106.902448322
87.8996332365
75.8688840782
66.922804045
59.160508765
52.0382025616
46.0146672984
41.3813945705
37.8452005186
34.9535333429
32.4223231058
30.1657378851
28.1971781496
26.520316004
25.1017204348
23.8782633236
22.8000924419
21.8379618327
20.9749435853
20.2021249823
19.5056210949
18.8689253825
18.278035204
17.7249272042
17.2075984478
16.7234901632
16.2670595352
15.8321301065
15.4152221358
15.0160955376
14.6346439223
14.2689845501
13.9163069993
13.5749423182
13.244982336
12.926694799
12.6195369447
12.3223474617
12.0344313975
11.7560550642
11.4876234447
11.2291607217
10.9805159954
10.7418099449
10.5131848416
10.2945649374
10.0857744663
9.88679583812
9.69766805542
9.51835533853
9.34877991745
9.18894218279
9.03882686003
8.89825927123
8.76683755296
8.64394079338
8.52866264188
8.41973668685
8.31559160209
8.21456700193
8.11525079125
8.01671372826
7.91846258352
7.82025527367
7.72195561219
7.62348450138
7.5248197176
7.42602138696
7.32731150182
7.22928137759
7.13340351023
7.04325337792
6.96724616673
6.92398540509
6.94975524214
7.10089182847
7.43774888729
7.99426752679
8.76234819081
9.70293134988
10.7661881212
11.9056221072
13.0839241429
14.271963014
15.4525696583
444.953181744
248.903725788
221.491131384
213.438035519
204.708876418
181.050942909
141.800425552
117.5219958
97.5349990534
85.0925132375
76.1563751156
68.6755152507
61.6413697726
54.8532888029
48.9490646937
44.3299268482
40.7758946302
37.8471577869
35.2568869686
32.9208075606
30.8664336147
29.1139233705
27.6300591139
26.3394539862
25.1770914973
24.1089260706
23.1239267812
22.2198219194
21.3965298979
20.6443388249
19.9484203883
19.2964876743
18.6824829206
18.1058866727
17.5646007769
17.0530795366
16.5654459751
16.0986343258
15.6526529871
15.2273928231
14.8209031896
14.4304690485
14.0544771447
13.6928321546
13.3454962251
13.0116111156
12.6897791194
12.3790503909
12.0793143338
11.7905221105
11.512333946
11.2440926923
10.9853286267
10.7360210168
10.4962266942
10.2658725514
10.0447985764
9.83293843407
9.63022980066
9.43652051436
9.25161231454
9.07536726272
8.90768222518
8.74842591025
8.59744849133
8.45461562234
8.31977551136
8.19267035785
8.07289401789
7.95988204713
7.85288213721
7.75093227306
7.65290060565
7.5576197024
7.46407252049
7.37152735952
7.27952587708
7.18778908314
7.09613281525
7.00443625897
6.91265332423
6.82086914299
6.72945389866
6.63944905403
6.55350372606
6.47804376308
6.42780880498
6.43320735982
6.54558124848
6.82691598777
7.32033952251
8.02761956482
8.91465340545
9.9317898891
11.0302276677
12.1697326971
13.318710317
14.4545075799
15.5649221707
480.127683477
267.546466728
237.484720475
228.745959347
219.569568242
194.619411602
153.026045274
127.763455894
106.636802997
93.5030731787
84.054570234
76.1033864982
68.5703119018
61.2449120118
54.8431401065
49.8478723089
46.0649027604
43.0067806059
40.3090250801
37.7917103126
35.4370442783
33.3155889086
31.477788315
29.9087966305
28.536735457
27.2932588329
26.1423253934
25.0758518711
24.0969410211
23.2057793204
22.388182231
21.6243039494
20.8988456228
20.2045917746
19.5413668227
18.9127719015
18.3187252114
17.7548767334
17.2163748215
16.7011352653
16.2097210207
15.7421910132
15.2965245142
14.8700413166
14.4611666587
14.0696869422
13.6954159005
13.3373126568
12.9938790986
12.6640307269
12.3473715622
12.0435509347
11.7519197625
11.4715772852
11.2018039368
10.9422753133
10.6927050866
10.4527291182
10.2218432964
9.9996353227
9.78590201796
9.5805008024
9.38325656014
9.19396849885
9.0124684772
8.83860727844
8.67219795318
8.51304172612
8.36096302303
8.21581310331
8.07743344019
7.94565628897
7.82030856106
7.70119894373
7.58806547827
7.48054944251
7.3781794174
7.28036787625
7.1864005573
7.09547011757
7.00675816299
6.91953930487
6.83325994779
6.74753719469
6.66211280338
6.5768078914
6.49151245471
6.40622025961
6.32113999723
6.23697899002
6.15563742527
6.08184855536
6.02678704821
6.01467033433
6.08995629171
6.31365798861
6.73807841659
7.3779084414
8.20712056557
9.17767126122
10.2385854843
11.3463823928
12.4664423047
13.5738401324
14.6515516283
15.6914668874
524.12572929
290.739031431
258.041312711
250.4659054
247.814757869
239.44989902
212.075681589
166.221669635
139.290249705
116.617860648
102.60712563
92.5459783185
84.0368947797
75.9033183159
67.9206931398
60.8888064786
55.3759172089
51.2144595329
47.8677677489
44.9156104642
42.1453572261
39.5329784904
37.1680447786
35.1284391023
33.4072881439
31.9176345851
30.5652484826
29.2884863116
28.0664689826
26.9080874879
25.8316846966
24.8467516753
23.9413451792
23.0945359862
22.290374248
21.5229591134
20.794260532
20.1076685426
19.4604938239
18.845541761
18.2556830988
17.6870168668
17.1396797605
16.6160099366
16.1170638097
15.6414967689
15.187193794
14.7529901879
14.3387680966
13.9443235345
13.5684572762
13.2095623808
12.8664389349
12.5384684797
12.2251245373
11.9255586343
11.6387237941
11.3637441834
11.1000619675
10.8471655797
10.6044696839
10.3712977542
10.1470677565
9.93138837547
9.72390931738
9.52427129739
9.33207460665
9.14696974928
8.96870864135
8.7970960431
8.63193597221
8.47303574917
8.32021864999
8.17332823348
8.03219814651
7.89666244522
7.76656562229
7.64176981807
7.52213354209
7.4075094762
7.29773832789
7.19264186902
7.09199441721
6.99550450366
6.90280416217
6.8134499524
6.72692428582
6.64265707535
6.56007794504
6.47867478672
6.39804094743
6.31787752548
6.23797294799
6.15818477123
6.07845305502
5.99887366962
5.91989770357
5.8428247345
5.77098429953
5.71243118521
5.68537240015
5.72597753377
5.89079881005
6.23932974243
6.80178887602
7.56439290401
8.48324253264
9.50570907489
10.5843101465
11.6808120093
12.7674322098
13.825067776
14.8413953848
15.8116115312
600.779674853
330.177292722
291.459889571
282.177611069
280.396558405
278.396446034
268.039479781
235.665955111
183.215165549
154.818094123
130.567579091
115.675864892
105.229913686
96.7440465742
88.9432003833
81.0616930993
73.0327760915
65.7995459116
60.0659345246
55.7260732463
52.2340492591
49.1308239266
46.1752253432
43.33783988
40.7306992432
38.4661822321
36.5554016096
34.9071262022
33.4092371193
31.9860614356
30.6135861982
29.3092056611
28.1047074613
27.0151825239
26.0239971412
25.0992670411
24.2136049745
23.3542097706
22.52245376
21.7279399563
20.9791026357
20.2753825588
19.6097249365
18.9748786994
18.3672791453
17.7873328169
17.2366876782
16.7146557508
16.2181242278
15.743458706
15.2881745905
14.8516983744
14.4345810156
14.0370980344
13.6584436523
13.2973347284
12.9527908661
12.6242287306
12.3111342282
12.012584592
11.7274703388
11.4548458252
11.1940248443
10.9444128151
10.7053169097
10.475984672
10.2557502875
10.0441031866
9.84058418876
9.64472660617
9.4560491774
9.27412564268
9.09862695364
8.92926009966
8.76574036728
8.60777783204
8.45511439113
8.30754437826
8.16489968975
8.02702237891
7.89376424617
7.76498772563
7.6405709637
7.52039183761
7.40433188969
7.29227676975
7.18412185562
7.07975919073
6.97907493579
6.88194159492
6.78821446743
6.69771334973
6.61021426751
6.52544046102
6.44306703208
6.3627239336
6.2840127062
6.20653876483
6.12994586484
6.05394384695
5.97831342724
5.90290035092
5.82761893621
5.75249454018
5.67779468752
5.60436248501
5.53442507995
5.47348480648
5.4344058029
5.4445526091
5.55234119719
5.8198465523
6.29340323421
6.97673871098
7.83412398347
8.81301780125
9.86138409987
10.9363882845
12.0064993415
13.0499458981
14.0525856941
15.0059894117
15.9080269021
1046.94926751
580.630255396
516.080536056
499.209564634
489.460297104
462.65244341
389.601349169
283.033143073
230.141661386
183.91226263
157.41342734
140.220008282
127.284521534
116.330178784
106.061088842
95.6544018287
85.1736397316
75.9039219983
68.7196145214
63.4846944362
59.4896228497
56.0916544215
52.900075696
49.7354134963
46.6202035405
43.7135164768
41.1699853914
39.0292151756
37.1965687113
35.5363872938
33.9538115502
32.4181523618
30.9517504049
29.5982195802
28.3812561644
27.2855421062
26.2725088073
25.3084573227
24.3782117888
23.4848076338
22.6412301735
21.8570388231
21.1290562534
20.4451752587
19.792632858
19.1639180803
18.5577740487
17.9774949023
17.426873413
16.9064407329
16.4135067795
15.9445394093
15.4970719157
15.0703426151
14.6643463165
14.2783845813
13.9107530523
13.5594111412
13.2227452237
12.8999785211
12.590904525
12.2953606978
12.0127708751
11.7423331247
11.4833477203
11.2352710862
10.9976430719
10.7698423724
10.5511737267
10.3410152694
10.1388642233
9.9442862415
9.75682181652
9.57599890657
9.40139320435
9.23265858672
9.06948599599
8.91157368514
8.75862289276
8.61036750881
8.46659090072
8.32710014281
8.19171028696
8.06023884469
7.93252162351
7.80842204558
7.68782637341
7.57063018283
7.45673740835
7.34605823935
7.23851275633
7.13402238087
7.03251117488
6.93390380618
6.83812897936
6.74511073372
6.65476689627
6.56700191291
6.48170421481
6.39873602156
6.31792761338
6.23907309636
6.1619338562
6.08624394688
6.01172144709
5.93808975676
5.86509912086
5.79254452127
5.72027239106
5.64818621938
5.57627059715
5.50467077
5.43390430139
5.36538216876
5.3026483909
5.25418619891
5.23901377389
5.29459231248
5.47875696581
5.85059612649
6.43658807288
7.21675987716
8.14130038999
9.1548417075
10.2084227724
11.2650448432
12.2990631607
13.2938088306
14.2392385037
15.1300886349
15.966379006
1305.61346096
721.907638417
639.364952623
612.440757877
580.971502412
502.250393609
379.239443608
309.996410869
252.526653433
217.474138413
193.126342908
173.568278846
155.724610597
137.823442258
120.004518937
104.598046224
92.7914313251
84.3511737561
78.123921893
73.0686527179
68.5430038009
64.1835429814
59.8428408157
55.5979349108
51.6750980272
48.2818572424
45.4791127218
43.1475339166
41.0989314117
39.1830019997
37.3166720632
35.4859697588
33.7283861306
32.1018170092
30.640986544
29.33362646
28.1357402721
27.0072373727
25.928497221
24.900716387
23.9375745257
23.0496385284
22.2341489463
21.4770272259
20.7631977352
20.0833918497
19.4354307242
18.8221098946
18.2463201722
17.7067797838
17.1984690028
16.7154189688
16.2532514791
15.8100646432
15.3861015653
14.9822793612
14.5985730659
14.2336953856
13.8858108344
13.5533721348
13.2355098237
12.9317638161
12.641536435
12.3638448684
12.0975375388
11.8416235875
11.5954774702
11.3587523028
11.1311895875
10.9123861785
10.7018381839
10.4990865743
10.3037412428
10.1154634837
9.93385354998
9.75848291195
9.58895744068
9.42494133256
9.26614088882
9.1122578713
8.96299523627
8.81808373839
8.67729571875
8.54042773952
8.40728444466
8.27767677701
8.15143527664
8.02841744531
7.90849568559
7.79154813597
7.67745620112
7.5661126682
7.45742599347
7.35131870984
7.24772059401
7.14656755009
7.04779968368
6.95136316422
6.85720519833
6.76527470034
6.6755196736
6.58788862325
6.50232541902
6.4187672738
6.33713975969
6.25735481461
6.17930392205
6.10285616247
6.02785494519
5.95412218153
5.88146241688
5.80967222643
5.73855432746
5.6679320205
5.59766190516
5.52764312387
5.45783285886
5.38829078936
5.31930077193
5.25167737664
5.18750818856
5.13189133301
5.09672849867
5.10761154866
5.21114748514
5.47012776806
5.93486907697
6.61187038293
7.46340393011
8.43160664894
9.46109020952
10.5069176255
11.5373011041
12.5315107846
13.4770109995
14.3670413154
15.1988625088
15.9742114999
1643.75154089
907.913982086
804.02188352
769.410967724
728.380946233
627.222905099
470.601307936
382.790148143
309.982428879
265.184844656
233.451987891
207.091790726
182.338072778
158.504003954
137.946538181
122.165971371
110.567013425
101.530474556
93.7762450106
86.5496196211
79.533409578
72.8197627954
66.7432084364
61.5838538275
57.4215255985
54.0670187198
51.2244988101
48.6498608041
46.1845541759
43.755464493
41.3702355054
39.0934078448
37.0083529219
35.1643285071
33.5443966682
32.0854923373
30.724445529
29.4202979177
28.1598760829
26.9520973283
25.8181886315
24.7741665092
23.8194912493
22.9386381706