/*--------------------------------*- C++ -*----------------------------------*\
| =========                 |                                                 |
| \\      /  F ield         | OpenFOAM: The Open Source CFD Toolbox           |
|  \\    /   O peration     | Version:  2.3.1                                 |
|   \\  /    A nd           | Web:      www.OpenFOAM.org                      |
|    \\/     M anipulation  |                                                 |
\*---------------------------------------------------------------------------*/
FoamFile
{
    version     2.0;
    format      ascii;
    class       volScalarField;
    location    "400";
    object      k;
}
// * * * * * * * * * * * * * * * * * * * * * * * * * * * * * * * * * * * * * //

dimensions      [0 2 -2 0 0 0 0];

internalField   nonuniform List<scalar> 
10011
(
0.773329971879
1.11759145689
1.3550017099
1.5053682782
1.59453744793
1.64323841934
1.66624525675
1.67359009653
1.6719153051
1.66558571188
1.65751279476
1.64973895098
1.64386199142
1.64135786625
1.64188711702
1.64489909281
1.64809576531
1.72071189125
0.492772080215
0.515726738376
0.519700258271
0.518737239818
0.515087547937
0.509862330391
0.504019493436
0.498230505495
0.492897406501
0.488220764853
0.484253516787
0.480929986943
0.478062290679
0.474876204709
0.471513454436
0.467381508605
0.458505122575
0.43990306827
0.412179189115
0.424400001069
0.422229365499
0.414565557408
0.40464550703
0.393872144607
0.382989823773
0.372426836352
0.362431121263
0.353135302745
0.344591569209
0.336790297258
0.329708704844
0.323444673514
0.31802181067
0.313257989995
0.309035288836
0.30561222499
0.381902972171
0.385994366684
0.386374511883
0.383983416638
0.37983769511
0.374656715807
0.368920301599
0.362951697485
0.356972903243
0.351141175498
0.34558035412
0.340405162617
0.335678765105
0.331499658204
0.32803512103
0.325590650886
0.324725010621
0.32609839317
0.37524680074
0.375549149567
0.375007912045
0.373551568716
0.371341555642
0.368577036897
0.365444071663
0.362100268545
0.358675961089
0.355285050702
0.352026812719
0.348988918017
0.346281986889
0.344060024722
0.342560066035
0.342151283622
0.343294976658
0.34593434017
0.373465971204
0.37223239806
0.370965913507
0.369480444382
0.367748645527
0.365806007539
0.363711514952
0.361532403038
0.3593386343
0.357199919792
0.355189072851
0.353392416387
0.351923071672
0.350939570717
0.350667325301
0.351404704637
0.3534074693
0.356276139858
0.372978199235
0.371128385382
0.369432477042
0.367785579962
0.36614007046
0.364482544309
0.362820981744
0.361179558972
0.359594006055
0.35810885079
0.356780905027
0.355684705772
0.354920702199
0.35462453837
0.354971214484
0.356155055793
0.358266233292
0.360828411615
0.372862113799
0.370815085393
0.368937570265
0.36717946831
0.365509646147
0.363912129761
0.362383694943
0.360934475052
0.359585943177
0.358371036342
0.357335938766
0.356543629399
0.356078178301
0.356047484953
0.356578275343
0.357788840519
0.35968729397
0.361837851686
0.372824033264
0.370699877029
0.368735729908
0.366908715044
0.365202915594
0.363608820094
0.362123446702
0.360752193344
0.359510225157
0.358423178725
0.357528627542
0.356878191041
0.356539141719
0.356593212941
0.357127706687
0.35820878362
0.359803859371
0.361536430054
0.372808987673
0.370650977459
0.368641608995
0.366770335762
0.365030521186
0.36341923503
0.361936512242
0.360587600679
0.359384811228
0.35834862726
0.357508817364
0.356905371171
0.356588197674
0.356613731374
0.357035261194
0.357880956243
0.359099730053
0.360388836222
0.372802756104
0.370629546713
0.368596991865
0.366699197171
0.364933158944
0.363298949109
0.361798878283
0.360438735023
0.359229208168
0.358186761819
0.357334185573
0.356700587802
0.356320009439
0.356227445922
0.356450638051
0.356994578587
0.357806561851
0.35865852069
0.37280023559
0.370618959151
0.368572797453
0.366657603026
0.364871128963
0.363213855451
0.361688392714
0.36029997853
0.359057281345
0.357972824548
0.357062982256
0.356347355617
0.355847026324
0.355581074472
0.355560751131
0.355779912072
0.356193811508
0.356639351421
0.372799885274
0.370613514495
0.368557644494
0.366628834828
0.364824715068
0.363145056538
0.361591515442
0.36016776934
0.358879859444
0.357736262722
0.356747559096
0.355925582768
0.35528183491
0.354824953502
0.354557136095
0.354468837435
0.354526456166
0.354617945612
0.372801191659
0.370611444292
0.368547926604
0.36660733759
0.364786963752
0.363085615425
0.361503599914
0.360042717734
0.358706330953
0.357499242954
0.356427271404
0.355496468484
0.354711935962
0.35407622952
0.353587409145
0.353236315804
0.352999693539
0.352802888678
0.372803753394
0.3706119181
0.368542384777
0.366591585071
0.364756351689
0.363034579338
0.361425288011
0.359928575405
0.358545551604
0.357278146823
0.356128724866
0.355099493843
0.354191732012
0.353404880542
0.352735571142
0.352176285563
0.351711788313
0.351293643397
0.372807008182
0.370614060606
0.368539981731
0.366580684776
0.364732471693
0.362992440302
0.361358549673
0.359829559329
0.358404915524
0.35708455469
0.355868599652
0.35475695754
0.353748851553
0.352842334588
0.352033829053
0.351317486733
0.350683723594
0.350102132385
0.372810165478
0.37061669398
0.368539285642
0.36657324374
0.364714327713
0.362958984828
0.361304382084
0.35974833547
0.358289187106
0.356925629774
0.355656477221
0.354480394624
0.353395616293
0.352399680715
0.351489210584
0.350659624254
0.349905053245
0.349207342922
0.372812247273
0.370618358478
0.368538489656
0.36656741006
0.364700442076
0.362933584009
0.36126349626
0.359687419001
0.358203052904
0.356808404789
0.355501605542
0.354280716644
0.353143544402
0.352087478235
0.351109374555
0.350205443751
0.349372028375
0.348598665665
0.372812930886
0.370618467131
0.368536665947
0.366561925463
0.364689318505
0.362914615781
0.361234216352
0.359645059217
0.358144511107
0.356730223636
0.3553999767
0.354151526049
0.352982467064
0.351890122706
0.350871476264
0.349923149913
0.349042700326
0.348224156644
0.372812737056
0.370617591739
0.368534143581
0.366556579902
0.364679924321
0.362899896069
0.361212787364
0.359615391681
0.358104898989
0.35667875562
0.355334524979
0.354069763644
0.352881916032
0.351768230214
0.350725716783
0.349751176329
0.348842812606
0.347997297787
0.372812232367
0.370616479897
0.368531669963
0.366552000215
0.36467268889
0.362889536409
0.361198800134
0.359597177585
0.358081702638
0.356649606487
0.355298202462
0.354024793036
0.352826591853
0.351700662806
0.350643899046
0.349653080316
0.348726696045
0.34786308262
0.372811959038
0.370616427934
0.368531797514
0.36655272424
0.364674848491
0.362893937898
0.361205934479
0.359607066955
0.358093779742
0.356662648902
0.35531033754
0.354033555323
0.352829014046
0.35169338862
0.3506233091
0.349615425777
0.348668372242
0.347781721548
0.372813584024
0.370623742927
0.368549053874
0.366584813812
0.364725914059
0.362966146417
0.361299121641
0.359718787897
0.358219530263
0.356796221299
0.355444243394
0.354159441835
0.352938039304
0.351776546664
0.350671702919
0.349620482573
0.348622133153
0.347678307897
0.372827726545
0.370676248983
0.368660731771
0.36676932951
0.364986307153
0.363294963892
0.361680931629
0.360133023313
0.35864291777
0.357204666278
0.355814160032
0.354468599446
0.353166048541
0.351905104531
0.350684686569
0.349503939779
0.348364318747
0.347271266779
0.372923697758
0.370973932737
0.36920644652
0.367554791439
0.36596413723
0.364397388624
0.36283447187
0.361267224094
0.359694596546
0.358119454891
0.356546539359
0.354981197385
0.353428667591
0.351893725395
0.350380558183
0.348892765155
0.347435552837
0.346020658271
0.373481355217
0.372383418166
0.371377295635
0.370242984655
0.368898634801
0.367338746105
0.365593196514
0.363701678225
0.361702162661
0.359627381873
0.357504358155
0.355354927247
0.353196556882
0.351043175092
0.34890591814
0.346793763009
0.344716025166
0.34269026104
0.376467291983
0.378249614224
0.378882535455
0.378248682997
0.37664357717
0.374369070268
0.371646676381
0.368629444665
0.365422889076
0.362101139858
0.35871768877
0.355312126047
0.351914354685
0.348547283708
0.345228617911
0.341972088375
0.338789710674
0.335703644402
0.392537949372
0.401174048694
0.401931832757
0.399251217097
0.395027572679
0.390056626101
0.384715405358
0.379200772387
0.373628251471
0.368074768278
0.362596355729
0.357235527061
0.352024691342
0.346988024652
0.342142644875
0.337499316565
0.333063036281
0.328845218586
0.438449311862
0.450018641554
0.451120318798
0.44997510736
0.448326345923
0.446464466341
0.444471612626
0.442390951509
0.44025502634
0.438097026742
0.435951145264
0.433849202817
0.431817970098
0.429877795517
0.428041745036
0.426313627447
0.424679231653
0.423089496042
0.544762696367
0.7053165237
0.83623425483
0.945654888806
1.04096464213
1.12179872595
1.18865002246
1.24260154308
1.28505635681
1.31752457371
1.34148592665
1.35831202756
1.36922879813
1.3753045884
1.37745401898
1.37645008101
1.37294919321
1.3674187145
0.173918716634
0.158070075853
0.153140854839
0.149730895185
0.147973211471
0.147046659219
0.146666897739
0.146699362936
0.147033388161
0.147580866755
0.148281648899
0.149097114265
0.150002665483
0.150983515928
0.152032358781
0.153147525247
0.154331202463
0.155587758662
0.156922122925
0.158338287181
0.159838067629
0.161420703467
0.163084641097
0.164833963274
0.166695385848
0.168802948313
0.171469279642
0.175414353672
0.181076039366
0.19468568198
0.178048257448
0.162951450353
0.138294398912
0.123497463328
0.115503695705
0.109356337758
0.104564035121
0.101234005763
0.0991024259296
0.0979022786124
0.0974694034529
0.0976957046315
0.0984986771882
0.09981392089
0.101591913926
0.103794229677
0.10639004322
0.109353509872
0.112661965859
0.116295058456
0.120235305148
0.124471350527
0.129006641534
0.133879426801
0.139206204745
0.145273056328
0.152688350357
0.162740207718
0.177812957441
0.201923888499
0.242670156672
0.21617044886
0.203378743141
0.190268407752
0.1751954676
0.148789364052
0.130970806146
0.120687826586
0.114882771643
0.113040682317
0.112729439658
0.111724413774
0.110538339547
0.109771309303
0.109506744926
0.109689599098
0.110291110232
0.111295989957
0.112685127879
0.114436887835
0.116530434752
0.11894637186
0.121666443825
0.12467346272
0.127951760671
0.131488519191
0.13527697454
0.13932366405
0.143664496796
0.148400113966
0.153772724558
0.160325603537
0.169210365373
0.182622942612
0.204383383962
0.239783384395
0.296282840408
0.229128618659
0.216609929335
0.204511258233
0.189645323396
0.162051525357
0.142642017866
0.130205778406
0.122300715453
0.117650023645
0.115747353872
0.115843129695
0.117555559039
0.12055524831
0.123930467979
0.126366455516
0.128010793511
0.129435673014
0.130861986689
0.132327480417
0.13386125272
0.135496924676
0.137257855337
0.13915811342
0.141207389051
0.143413146367
0.145781306426
0.148316988767
0.151025920313
0.153917208614
0.157009180144
0.160341984166
0.164005135386
0.16819763136
0.173355915637
0.18040793888
0.191205402839
0.20901937374
0.238548399361
0.284648826132
0.351572619851
0.240904974772
0.228445919353
0.217144765952
0.202339680624
0.173694090765
0.153118057534
0.139763037019
0.130939275273
0.125194243537
0.121894040378
0.120242580947
0.120258354682
0.121772452488
0.124379558189
0.127884282984
0.132087117788
0.136786324927
0.141457482375
0.145279432653
0.148203013303
0.150633672785
0.152820378502
0.154849188199
0.15677362523
0.158644516372
0.160501003003
0.162370467848
0.164273647488
0.166227897977
0.168248774296
0.170351586204
0.172553871663
0.17488010295
0.177371454188
0.180106998687
0.183250140434
0.187148762481
0.192539905945
0.200920169003
0.215048011728
0.239148153058
0.277860992968
0.333772633912
0.407300166683
0.252890483353
0.240144858032
0.229428427974
0.214590115121
0.184989067477
0.163368900482
0.149209908613
0.13965380339
0.133235234594
0.1293280134
0.127081020371
0.126397861792
0.127012167231
0.128471850878
0.130641358788
0.13355498158
0.137111088135
0.141144759816
0.145590832604
0.150352565691
0.155273897658
0.160011578906
0.164057515637
0.167304129484
0.169997001308
0.172347880419
0.174454708024
0.176377127944
0.178168546806
0.179872577651
0.181521894206
0.183142188773
0.18475553739
0.18638250352
0.188044457906
0.189767513975
0.191590299745
0.193580470024
0.195870857478
0.198738180417
0.202767376008
0.209162717059
0.220219238975
0.239676795359
0.272095705711
0.320611097729
0.384558854465
0.461312776901
0.270345994591
0.259660249797
0.254438554658
0.244984488677
0.22883460044
0.197321278138
0.174133065974
0.158922895425
0.148495611677
0.141357446015
0.13690268648
0.134217304116
0.133127581867
0.133346179713
0.134401896508
0.136099578816
0.138412558678
0.141195088573
0.144267556468
0.147624858454
0.151302341065
0.155243406618
0.159376025401
0.1636779873
0.168105444394
0.172543841417
0.17676107603
0.180439321048
0.183469849543
0.185984815782
0.188139776928
0.190025324015
0.191699342628
0.193211902773
0.194605316847
0.195912823434
0.197161334436
0.198374578313
0.199575715817
0.20079072211
0.202054650076
0.203424655485
0.205008489581
0.207027140929
0.20994822231
0.214747935725
0.223341604823
0.239018410836
0.266172851904
0.308436329139
0.366115904748
0.435622238524
0.512756570896
0.284931032803
0.274494587031
0.270164715455
0.261305407004
0.245178608555
0.212801254709
0.188759582705
0.172749949705
0.160949384979
0.152269042062
0.146111254318
0.142221359127
0.139845516834
0.13890057007
0.139160462005
0.140189047095
0.141784788264
0.14392259694
0.146464434981
0.149226296928
0.152170029575
0.155301089336
0.158546947781
0.161838521611
0.165200256876
0.168672239153
0.172234838831
0.175858410208
0.179538425163
0.183253427848
0.18692116228
0.190381575767
0.193430955829
0.195978098625
0.198086776761
0.199861527949
0.201376414656
0.202682163703
0.203822041322
0.204833556772
0.20574753966
0.206589985554
0.207384940074
0.208157731024
0.208940081873
0.209780476347
0.21076685495
0.212077107258
0.214088746548
0.217601540386
0.224227804415
0.236865789192
0.259694779798
0.296707731228
0.349077556343
0.413995101323
0.486244443133
0.561554169317
0.299282096721
0.28956902676
0.285866567026
0.277379830925
0.261068656069
0.227672426024
0.202497353444
0.185628744239
0.173051293843
0.163559233376
0.156538502031
0.151707475682
0.148197648531
0.145898633926
0.144944001853
0.145168148135
0.146141208034
0.147665053169
0.149706889204
0.152128558713
0.154745036941
0.157497244613
0.160383068646
0.163328769084
0.166257323469
0.169169995779
0.172085768741
0.174976899737
0.17782149269
0.180648749904
0.183496651729
0.186366940245
0.189249103537
0.19214247248
0.195031451251
0.197856009158
0.200504935807
0.202844652131
0.204804416991
0.206410337567
0.207728047898
0.208813080463
0.209706726532
0.210444438201
0.211057707972
0.211573660225
0.212016467045
0.212410277298
0.212783642752
0.213177904332
0.213665434539
0.214390731431
0.215661462652
0.218139077068
0.223191700651
0.233381764523
0.252655501551
0.285241673082
0.333085307726
0.39413929837
0.463504883707
0.535861596499
0.607721697764
0.313890553776
0.304728658083
0.30151294592
0.293319880841
0.276836073865
0.242545435388
0.216366183822
0.198733702862
0.185469449493
0.175284125939
0.167603420318
0.162193755528
0.15817186478
0.155358561933
0.153829790154
0.153384881549
0.15356103396
0.15416846723
0.155263145155
0.156907327171
0.1589823068
0.161294736179
0.163772649232
0.16639353814
0.169073724397
0.171727905477
0.174340149602
0.176918351965
0.179430296413
0.181846510292
0.184180151469
0.186454424806
0.188666492919
0.190815145824
0.192925242584
0.195027298143
0.197130709725
0.199233326649
0.201333345734
0.203416448621
0.20543760497
0.20731876367
0.208970257263
0.210338774811
0.211430904604
0.212285358323
0.212941109486
0.213429874811
0.213779550556
0.214015664814
0.214161467246
0.214239470192
0.214275082375
0.214303574308
0.214384926375
0.214637466482
0.215313772804
0.216964155788
0.220754094479
0.228949694124
0.245251865003
0.274030420207
0.317903511878
0.375599170862
0.442573860821
0.513438431149
0.583790600211
0.651102975873
0.329997851256
0.321052029567
0.318069761347
0.309955646443
0.293124793534
0.257863494447
0.230646934218
0.212258532159
0.198330509798
0.187481476752
0.179177860298
0.173245491192
0.168793338595
0.165585679472
0.163666489962
0.162841564248
0.162660030218
0.162902086427
0.163596665677
0.164780607202
0.166319488922
0.168010995079
0.169814822109
0.171776568407
0.173909846367
0.176142692319
0.178390817725
0.180629742657
0.182851466287
0.185013956225
0.187079604038
0.189048815298
0.190934428388
0.192728237812
0.194422114478
0.196029857955
0.197572000505
0.199056133532
0.200488725108
0.201889044275
0.203279455799
0.20467038517
0.2060618295
0.207450050052
0.208820927195
0.21013951362
0.211350195399
0.212391317144
0.213223071372
0.213842722586
0.214271593989
0.214535610923
0.2146580538
0.214660277837
0.214562719235
0.214385556965
0.214151036768
0.213889059616
0.213649397134
0.213529327808
0.213736814558
0.214729971405
0.217499481665
0.224038304803
0.237781995063
0.263157141527
0.303383293463
0.357982169256
0.422844579015
0.492548218039
0.562405861447
0.629243574379
0.69141913616
0.349191626446
0.341353939672
0.341396827077
0.340563619591
0.331616319299
0.312658084156
0.275066058555
0.246013331956
0.226519156627
0.211712918797
0.200036499587
0.191007625809
0.184531042771
0.179679313983
0.176133418458
0.17389556352
0.172776053979
0.172337332708
0.172334991558
0.172781257907
0.173703056139
0.174969987408
0.176384646877
0.177888003349
0.179511975538
0.181260085812
0.18305770198
0.184825129973
0.186562772017
0.18830387792
0.190051133878
0.191766186551
0.193413336382
0.194989048037
0.196496801554
0.197921533274
0.199248568858
0.200482723121
0.201636160443
0.202711014905
0.203708011709
0.204638778265
0.205519367386
0.20635988871
0.20716867666
0.207959615316
0.208747849119
0.209541165508
0.210339235536
0.211136486528
0.211919060503
0.212659328758
0.213316985293
0.213848779031
0.214225017022
0.214439179209
0.21450199239
0.214429961792
0.214239654783
0.213947302003
0.213569652148
0.21312551716
0.212639881736
0.212153752219
0.211746811391
0.211589611365
0.212061058115
0.213995155679
0.219122136325
0.230580401835
0.252763112629
0.289430028699
0.340956015038
0.40376645256
0.472464891117
0.542104488077
0.609167911048
0.671574626091
0.728401663944
0.368475136536
0.360799230118
0.36117138828
0.360739703904
0.351979001944
0.332761611811
0.294384949561
0.264634127942
0.244938863814
0.229962434933
0.217489236431
0.207177057999
0.198994496826
0.193066983681
0.188570214168
0.185249256973
0.183138755619
0.18207890991
0.181658761665
0.181633191085
0.182015968349
0.182837230256
0.183977969894
0.185252727307
0.186594086708
0.188030822363
0.189567269652
0.191135323948
0.192658824794
0.19413066908
0.195577333089
0.196998653776
0.198358848712
0.199629613869
0.200823151823
0.201965508706
0.203061307354
0.204093429319
0.205047366539
0.205925611954
0.206734998571
0.207473015598
0.208135724128
0.208728457362
0.209261028851
0.209738712505
0.210165367884
0.210549810032
0.210903605642
0.211235523564
0.211552841385
0.211864765603
0.212180561341
0.212504714898
0.21283559872
0.213166573957
0.213484578082
0.213767653616
0.213986209633
0.214109473806
0.214115317989
0.213996322297
0.213757155424
0.21340800683
0.212960588747
0.21242761533
0.21182400961
0.211170002018
0.210498786075
0.209874748484
0.209435936872
0.209491092405
0.210729802723
0.214622783775
0.223970299036
0.243024585024
0.276009535423
0.324242307861
0.384847684225
0.452528987283
0.522072830956
0.589617500792
0.652804634663
0.71031756683
0.761843469801
0.388790179129
0.381844715817
0.383662385835
0.386992257092
0.386874227059
0.37690921932
0.355480043711
0.314799370401
0.283115244659
0.262354349567
0.246594915389
0.233347316961
0.222204455666
0.213226667556
0.206624771062
0.20146621037
0.197314248101
0.194166529738
0.192167469501
0.191184885296
0.190816593413
0.190819528226
0.191206830217
0.192006546781
0.193101891225
0.194313462585
0.195568621673
0.196893923201
0.198295833657
0.199712961544
0.201074856964
0.202370905566
0.203625115801
0.204838785377
0.205980606012
0.207024428829
0.20797887235
0.208866065313
0.20968991279
0.210436350113
0.211097105958
0.211683670256
0.212214389764
0.212694944787
0.213119056752
0.213481431109
0.213785259239
0.214036899341
0.214238197354
0.214389581325
0.214495448842
0.214562798774
0.214596633307
0.214600963609
0.214581943686
0.21454722629
0.21450320019
0.214455090881
0.214408480184
0.214368347972
0.214336382035
0.214309839631
0.214281785269
0.21424056391
0.214168792543
0.21404463188
0.213846006254
0.213556516557
0.213169241372
0.212685680505
0.212112114729
0.211457159327
0.210731757041
0.209951442578
0.209142236083
0.208354889609
0.207698565924
0.207418820271
0.208070880043
0.210868423066
0.218231220788
0.234142437192
0.263167049667
0.307650778915
0.365659271434
0.432140250049
0.50160043457
0.569769135135
0.63393507257
0.692632882338
0.745156869166
0.791605649754
0.408024748107
0.401327426433
0.403578110153
0.407478475768
0.407948104095
0.398344675545
0.376825843513
0.335677224309
0.30336235632
0.282449978064
0.266859454922
0.253720220254
0.242010149986
0.231840842384
0.22348886096
0.21729770867
0.212410392845
0.208423729725
0.205340263907
0.203298170982
0.202162490669
0.2015194265
0.20110271983
0.200934311829
0.201146220648
0.201794373224
0.202757825832
0.203849831739
0.204989495532
0.206195586973
0.207469877544
0.208751499722
0.209972010393
0.211117919973
0.212210834899
0.213253565608
0.214219205307
0.21508472615
0.215857197606
0.216556614085
0.217187666361
0.217738751942
0.218202511501
0.218588371064
0.218911803681
0.219178031398
0.219382908931
0.219525223057
0.219613176302
0.219658464273
0.219665995146
0.21963419685
0.219561408485
0.219449979198
0.219304248902
0.219126599295
0.218918444893
0.2186828687
0.218424326526
0.21814653164
0.217852599783
0.217546563961
0.217233198779
0.216916649917
0.216600225465
0.216286957698
0.215979009309
0.215676234749
0.215375277187
0.215069589166
0.214749212466
0.214400595271
0.214007635563
0.213554454603
0.213029006483
0.212425461687
0.211743910624
0.21098850937
0.210166386165
0.209288683488
0.208374864598
0.207463514199
0.206638152754
0.206087735595
0.206244054568
0.20807167201
0.213577817164
0.226337061016
0.251057230163
0.291134870957
0.345884673643
0.410760489773
0.480023878251
0.548901267004
0.614244014657
0.674320692944
0.728271226492
0.775917387581
0.817608850423
0.428905327495
0.421954012905
0.424289810408
0.428458996601
0.42920689739
0.419622724822
0.397648583669
0.355796749531
0.322480606238
0.301012947668
0.285029128001
0.27148500597
0.259262752022
0.248459209223
0.239469465012
0.232749125303
0.227418313985
0.22291746357
0.219103532397
0.21612006293
0.21414673471
0.213055425287
0.212435422201
0.212015155075
0.211810749369
0.21194490723
0.212459326088
0.213221291991
0.21403333779
0.214814400175
0.215613429788
0.216500728153
0.217489586422
0.218519218729
0.219516883464
0.220460602912
0.221364326311
0.222225508517
0.223016226884
0.223712973485
0.224320130535
0.224854815286
0.225321881402
0.225711872405
0.226018614619
0.226250284368
0.226420233129
0.226533414321
0.226586517982
0.226578325973
0.226515445654
0.226407428427
0.226258656677
0.226068789831
0.22583862289
0.225573237701
0.225279418595
0.224960474144
0.224616280311
0.224246317119
0.223851921477
0.22343558937
0.222999090014
0.222543663491
0.222071303007
0.221584700413
0.221086325328
0.220578348426
0.220063327054
0.219544121637
0.219023250334
0.218502592496
0.217983554541
0.217466675127
0.216950785623
0.216432457066
0.215905903661
0.215362976296
0.214793249747
0.214184900823
0.213526519416
0.212809347653
0.212028821819
0.211184675492
0.21028028058
0.209322834488
0.208326069107
0.20731802919
0.206360077035
0.205591908485
0.20533567253
0.206324504004
0.210143546773
0.21983217518
0.239963578456
0.274859191663
0.325398709563
0.387965201837
0.45672448269
0.526314353031
0.593005222819
0.654678413992
0.710271960057
0.75949918717
0.802507765519
0.839808733971
0.453385838585
0.44586745554
0.44846202931
0.45390099452
0.458655758024
0.458808026626
0.447318060251
0.42237052385
0.377831891088
0.342231852708
0.319668287872
0.303043647186
0.288908395459
0.27596768584
0.264315860182
0.254541956694
0.247274151748
0.241624941444
0.236921234692
0.23293028644
0.229748711733
0.227541647689
0.226193788639
0.225293589697
0.224534761585
0.223885278279
0.2234705378
0.223438034916
0.223820087123
0.224468576258
0.2251741826
0.225844404351
0.22651846044
0.227256849129
0.228063541778
0.228872745632
0.229610847693
0.230263100268
0.23086622961
0.231453842847
0.232027431583
0.232560939748
0.233029971858
0.233433912473
0.233783990395
0.234081023108
0.234313964274
0.234475243767
0.23457040733
0.234609744755
0.234597266696
0.234530070787
0.234406875165
0.234232994115
0.234015988549
0.233759427154
0.233462881873
0.233126723825
0.232754832752
0.232352553656
0.231922781707
0.231466135157
0.230983606829
0.230478091544
0.229953278332
0.229411130169
0.228851836393
0.228275242492
0.227682065475
0.227073665517
0.226451189543
0.225815558159
0.225168062448
0.224510342451
0.223844015778
0.223170542583
0.222491541019
0.221808714171
0.221123502371
0.220436870563
0.219749279304
0.219060400061
0.218368661649
0.217670861063
0.216962130789
0.216235955128
0.215484425932
0.21469888793
0.213871156094
0.212994948576
0.212066955495
0.211087229875
0.210059468371
0.20899261039
0.207906038578
0.206842885174
0.205902011534
0.205313050513
0.205606341709
0.207965798519
0.214814820608
0.230276028805
0.259250999578
0.304366987178
0.363531259822
0.431170039009
0.501318874
0.569493121423
0.633004218798
0.690491319229
0.741527782527
0.786201813322
0.824880834475
0.858173394639
0.49617122092
0.485356382467
0.486350041202
0.491231800638
0.496539869
0.500219216821
0.49825696997
0.482856250814
0.452544524765
0.403455408631
0.364210346178
0.340233512203
0.323325811725
0.309423987831
0.296698342242
0.28443785667
0.273025852191
0.263381812607
0.25638189505
0.251119932312
0.246834601888
0.243222652458
0.240348462368
0.238382444856
0.237250092534
0.236572981498
0.2360428435
0.235600871667
0.235347187349
0.235409487517
0.235812328197
0.23641399392
0.237011100379
0.237508585435
0.237939901656
0.238387902569
0.238919698853
0.239536218269
0.240169335606
0.240744224585
0.241242054055
0.241690606206
0.242114715014
0.242509778952
0.242848181059
0.243108532692
0.243297077886
0.243437937253
0.243548179366
0.243627554553
0.243665425003
0.243654206508
0.243596884532
0.243499956536
0.243364326824
0.243185338715
0.24296012067
0.242691870065
0.242385649441
0.242043752033
0.241665342919
0.241250308797
0.240801536359
0.240322923199
0.23981660327
0.239282850688
0.238722265502
0.238137042564
0.237530086407
0.23690320907
0.236257146912
0.235592754429
0.234911726184
0.234216094494
0.23350703873
0.232784814786
0.232049456493
0.23130141692
0.230541495541
0.229770474659
0.228989045677
0.228198100754
0.227398708363
0.226591942149
0.225778798524
0.224960313574
0.224137481824
0.223311093523
0.222481532915
0.221648730232
0.220811952189
0.219969520709
0.219118613239
0.218255218346
0.217374229788
0.216469667092
0.215535212628
0.214565030678
0.213554745583
0.212502278606
0.211408542957
0.210278638217
0.209125208671
0.20797727695
0.206901879731
0.206055448976
0.205802784506
0.20697771548
0.21137944264
0.222410784853
0.245001674236
0.283365598403
0.33757570171
0.403016179538
0.473269943284
0.542946787944
0.608541463221
0.668230345811
0.721359511503
0.767936599269
0.808312366049
0.843000419487
0.872663386664
0.595482573307
0.581019207663
0.583030504603
0.589042608225
0.593142742412
0.588241029499
0.562326020562
0.515946666515
0.449876901316
0.394024827684
0.362054756306
0.341116564272
0.325071292072
0.311287589266
0.298466070385
0.286136761944
0.274878204914
0.265683562638
0.259436741711
0.254953909152
0.251377184279
0.248298090366
0.245694798962
0.243773352969
0.242747382545
0.242522692655
0.242675894371
0.242867664499
0.243046862769
0.243332822997
0.243863728848
0.244667239434
0.245606990424
0.246486795729
0.247218233816
0.247836759337
0.248426979481
0.249053688459
0.249715105984
0.250343526486
0.250867261399
0.251272332116
0.25159623264
0.251885706798
0.252168733309
0.252440492848
0.252672492994
0.25284137738
0.252949749182
0.253016106224
0.253051766181
0.253052161118
0.253004905355
0.252903679629
0.252755371495
0.252573332769
0.252365671143
0.252131461357
0.251865409825
0.25156441621
0.251230342518
0.25086621738
0.250472426125
0.250046840873
0.24958822939
0.249098274367
0.248579424015
0.248032989263
0.247458873454
0.246857346775
0.246230125799
0.245579388738
0.244906532664
0.244212092556
0.243496747868
0.242761938741
0.242009447341
0.241240541039
0.240455950315
0.239656432904
0.23884311872
0.238017265872
0.237179675264
0.236330655801
0.235470370107
0.234599198548
0.233717721207
0.232826538416
0.231926228156
0.23101747685
0.230101046432
0.229177712042
0.228248171923
0.227313109855
0.226373117855
0.225428585667
0.224479576702
0.223525753793
0.222566224534
0.22159940076
0.220622844884
0.219633297438
0.218626742355
0.217598657761
0.216544405838
0.215459840451
0.214342050403
0.213190150716
0.21200635709
0.210798222416
0.209584241735
0.208407686609
0.20736980458
0.2067078186
0.206972038886
0.209395689157
0.216515112504
0.232666611814
0.26300145811
0.310150423589
0.371561479948
0.440982539549
0.511963219943
0.579934050537
0.642304676977
0.698010934296
0.746902485262
0.789301458438
0.825741135254
0.85683061454
0.883259593388
0.655584204962
0.638062510036
0.639208966832
0.643639708156
0.641296375739
0.619474961842
0.575571902492
0.501926157663
0.443192669978
0.407017682695
0.381425881902
0.360395908617
0.341056007106
0.322218947637
0.304603276291
0.289956628274
0.279559816321
0.272108742159
0.26632741596
0.261426316233
0.257110686111
0.253426684154
0.250631848383
0.248961718726
0.248285917789
0.248094762753
0.247964725634
0.247792746089
0.247675150041
0.247791086349
0.248298195955
0.249201178841
0.250310294537
0.251378677177
0.25229744585
0.253103825497
0.253892982321
0.254734769406
0.255622120163
0.256475841579
0.25721458641
0.257821563071
0.258333178096
0.258797451814
0.259241553192
0.259657226294
0.260011542653