/*--------------------------------*- C++ -*----------------------------------*\
| =========                 |                                                 |
| \\      /  F ield         | OpenFOAM: The Open Source CFD Toolbox           |
|  \\    /   O peration     | Version:  2.3.1                                 |
|   \\  /    A nd           | Web:      www.OpenFOAM.org                      |
|    \\/     M anipulation  |                                                 |
\*---------------------------------------------------------------------------*/
FoamFile
{
    version     2.0;
    format      ascii;
    class       volScalarField;
    location    "400";
    object      nut;
}
// * * * * * * * * * * * * * * * * * * * * * * * * * * * * * * * * * * * * * //

dimensions      [0 2 -1 0 0 0 0];

internalField   nonuniform List<scalar> 
10011
(
3.09416051591e-05
3.71955017215e-05
4.09540776552e-05
4.31631957859e-05
4.44176894569e-05
4.50825933021e-05
4.53848027039e-05
4.54668030691e-05
4.54182035065e-05
4.52951354719e-05
4.51324127503e-05
4.49510380659e-05
4.47625736689e-05
4.45707065287e-05
4.43426341655e-05
4.40197299092e-05
4.34759902262e-05
4.03443039137e-05
0.000116754770237
6.95282558333e-05
5.1775447004e-05
4.25859177773e-05
3.73224719282e-05
3.40857807071e-05
3.19888268196e-05
3.05840213754e-05
2.96269940199e-05
2.89746320607e-05
2.85380723885e-05
2.82593977841e-05
2.81000566719e-05
2.80451849237e-05
2.80265048823e-05
2.79440605373e-05
2.77007221244e-05
2.68313760305e-05
0.00036566618914
0.000224200374775
0.000163715077736
0.000129433438581
0.000107811692898
9.32803744791e-05
8.30253573143e-05
7.55191765715e-05
6.98832665479e-05
6.55868361398e-05
6.23015495073e-05
5.98297999039e-05
5.8190738679e-05
5.71306578697e-05
5.64901448376e-05
5.63930466964e-05
5.71805187193e-05
5.94604797732e-05
0.000645082452262
0.000480387605133
0.000380890813738
0.000316549544977
0.000272406051463
0.000240852192838
0.000217556407721
0.000199932486513
0.000186382305198
0.000175897530948
0.000167911800662
0.000162165082689
0.000157764239273
0.000154649006292
0.000152899930714
0.000152843792562
0.000155153170573
0.00016069974606
0.000789525804458
0.000697852429766
0.000614162609447
0.000545746613083
0.000491412727327
0.000448488163698
0.000414442525167
0.000387278102625
0.000365536976043
0.00034833774613
0.000334735495138
0.000323848024201
0.00031535992727
0.00030916278559
0.000305364774849
0.000304326958698
0.000306620610493
0.000312511740131
0.000836249288493
0.000802606936415
0.000760357049749
0.000716644454434
0.000675400290811
0.000638342460382
0.000605931787078
0.000578052050768
0.000554530848175
0.00053460529845
0.000517822035314
0.000503897255377
0.000492666311955
0.000484104875444
0.000478345692373
0.000475669293251
0.000476361541727
0.000480132487317
0.000848398074164
0.000838762290162
0.000823567114371
0.000804445347883
0.000783253491819
0.000761546282588
0.000740451593044
0.000720721261835
0.000702521678939
0.000686071208417
0.000671478143419
0.000658819194143
0.00064818270835
0.000639699558942
0.000633556011869
0.000629965285677
0.000629014234983
0.000630208539569
0.000850844964082
0.000847645220758
0.000841997823319
0.000833973100388
0.000824050866337
0.00081288387013
0.000801117716161
0.000789230443818
0.000777625778035
0.000766626884286
0.00075649292569
0.000747445982447
0.000739695390257
0.000733454477287
0.000728940346347
0.000726336405931
0.000725657806052
0.000726421258084
0.000851474394748
0.000850284324175
0.000848210659088
0.000845067923953
0.000840866418067
0.000835766247152
0.000829979170479
0.000823760916821
0.00081736754784
0.000811043511014
0.00080501857532
0.000799511528981
0.000794735669108
0.000790900439922
0.000788200759623
0.000786778783242
0.000786617047107
0.000787295267123
0.000851636481389
0.000851062998726
0.000850274189235
0.000849156013705
0.000847646003275
0.000845732565975
0.000843453861199
0.00084088702014
0.000838137333498
0.000835329305661
0.000832600654397
0.000830098700318
0.000827976941301
0.000826388356845
0.000825470135749
0.000825310319219
0.000825869682913
0.000826805845331
0.00085166815033
0.000851240758103
0.000850807570102
0.000850330387197
0.00084977809966
0.000849133224516
0.000848394040395
0.000847576594186
0.000846715006347
0.00084586019623
0.000845077963955
0.000844446453755
0.000844051988296
0.000843981542044
0.000844309318625
0.000845072366683
0.000846217681405
0.00084747575781
0.000851671712924
0.000851266523858
0.000850901481116
0.000850569693804
0.000850265343035
0.000849986268531
0.000849734696577
0.000849518979526
0.000849355218231
0.000849267946667
0.000849289907177
0.000849460736548
0.000849823934455
0.000850421285932
0.000851283768515
0.000852416370731
0.000853764668878
0.000855124032116
0.000851671967291
0.000851264975477
0.000850901887633
0.000850584204598
0.000850314112829
0.000850096021939
0.000849936550484
0.000849845057222
0.000849834392754
0.000849921217026
0.000850125681333
0.000850470303242
0.000850977716177
0.000851666991663
0.000852548282022
0.000853614354303
0.000854820390042
0.000856018814788
0.000851673460717
0.000851262497377
0.000850891322028
0.000850562913973
0.000850280677275
0.000850049642931
0.00084987649495
0.000849769657624
0.000849739476498
0.0008497981362
0.000849959142995
0.000850236291512
0.000850642027781
0.000851185181212
0.000851868066761
0.000852682039776
0.000853595590282
0.000854507518112
0.000851676469843
0.000851262749473
0.000850883986762
0.000850542967954
0.000850242694395
0.000849987240765
0.000849781866721
0.000849632995409
0.000849548164439
0.000849535797448
0.000849604699804
0.000849763258877
0.000850018366
0.000850374121917
0.000850830372994
0.000851380452129
0.000852004426839
0.000852635375772
0.000851680380211
0.000851265197692
0.000850880685248
0.00085052897147
0.000850212344801
0.000849933798161
0.000849697140191
0.000849506944584
0.000849368424141
0.000849287184953
0.000849268824715
0.000849318384358
0.000849439694694
0.000849634680989
0.000849902661416
0.000850239244989
0.000850632904557
0.000851040656725
0.000851684216335
0.000851268395993
0.000850879779313
0.00085051971264
0.000850189745578
0.000849891957989
0.000849629028232
0.000849404165648
0.000849220968888
0.000849083206319
0.00084899451515
0.000848958037982
0.000848976033812
0.000849049504733
0.000849177865503
0.000849358460435
0.000849585354925
0.000849831858062
0.000851686754726
0.000851270462498
0.000850878886051
0.000850512693569
0.000850172846704
0.000849860792492
0.000849578473199
0.00084932824319
0.000849112731667
0.000848934652424
0.000848796570155
0.000848700645687
0.000848648386746
0.00084864042835
0.000848676370179
0.00084875462101
0.000848872584281
0.00084901371957
0.00085168758167
0.000851270595255
0.00085087667324
0.000850506013101
0.000850159238997
0.000849837463535
0.000849542222686
0.00084927538315
0.000849039013843
0.000848835212061
0.000848665907135
0.000848532666244
0.000848436519487
0.000848377817541
0.000848356152903
0.000848370384735
0.000848419668031
0.000848493297557
0.000851687331388
0.000851269473302
0.000850873439093
0.000850499096728
0.000850146895739
0.000849817698724
0.000849512637626
0.00084923304239
0.000848980327999
0.000848755835797
0.000848560676562
0.000848395593938
0.000848260852525
0.000848156155632
0.000848080627758
0.000848032955491
0.000848012967848
0.000848013447247
0.000851686660307
0.000851267743004
0.000850868987796
0.000850489465276
0.000850128684773
0.000849786048594
0.000849460775337
0.000849152004263
0.000848858797112
0.000848580092147
0.000848314679027
0.00084806118648
0.00084781807093
0.000847583610669
0.00084735594499
0.000847133294261
0.000846916002363
0.000846700992032
0.000851685555412
0.000851262747191
0.000850851679429
0.000850444869512
0.000850033762147
0.000849608529086
0.000849159123627
0.000848676263587
0.000848151934411
0.000847579654658
0.000846954605944
0.000846273620659
0.000845535059696
0.000844738630803
0.000843885219751
0.000842976935216
0.000842019618355
0.000841023773471
0.000851677199225
0.000851213872543
0.000850692318533
0.000850064317272
0.000849283089012
0.000848308257382
0.000847110281374
0.000845671721593
0.000843986345068
0.000842057439227
0.000839895844445
0.000837517955087
0.000834943904887
0.000832196045847
0.000829297773037
0.000826272913338
0.000823149032884
0.000819974649497
0.000851582945697
0.000850738718333
0.000849360008493
0.000847270114466
0.000844369169429
0.000840633247923
0.000836100761602
0.00083085118735
0.000824985967328
0.000818614570964
0.000811845095857
0.00080477849934
0.000797505582095
0.000790105844415
0.000782647526489
0.000775188613403
0.000767783249128
0.000760526380053
0.000850710137976
0.000847076444816
0.000840664352082
0.000831513230332
0.000820018698121
0.000806734326018
0.000792226081448
0.00077698964607
0.000761423996466
0.000745833535523
0.000730440914265
0.000715402766657
0.000700824769578
0.000686774457113
0.000673291441571
0.000660395441366
0.00064809731673
0.000636465267118
0.000844080398198
0.000824958506261
0.0007977531927
0.000766156275051
0.000733015916249
0.000700222338355
0.000668859173177
0.000639451215743
0.000612188108305
0.00058707276699
0.000564010052003
0.000542858620588
0.000523460601561
0.000505657914976
0.000489300769588
0.000474251747279
0.000460390157624
0.000447662517106
0.000803305058602
0.00072647236042
0.000651173992342
0.000585181406014
0.000529210533525
0.000482213413167
0.000442708359717
0.000409298817932
0.000380826548642
0.000356368191437
0.000335194427265
0.000316729189134
0.000300515825936
0.000286190440426
0.000273461462474
0.000262094274639
0.000251900012082
0.000242750445783
0.000625686566849
0.000465055965765
0.000368475103712
0.000303982700692
0.000258091772339
0.00022413073433
0.000198186773245
0.000177839328873
0.000161535271597
0.000148236732797
0.000137224905262
0.000127987624452
0.000120151437385
0.000113438699548
0.000107639705036
0.000102594463408
9.81810828426e-05
9.43197897543e-05
0.000254158414367
0.000158184522339
0.000117769408436
9.43787879636e-05
7.93398046317e-05
6.91094881509e-05
6.18472145291e-05
5.65209619576e-05
5.25154890804e-05
4.94432409082e-05
4.70492005049e-05
4.51597261881e-05
4.36532199377e-05
4.24424782751e-05
4.14636820275e-05
4.06693699399e-05
4.00238954492e-05
3.9504909687e-05
3.69332019511e-05
4.20247677444e-05
4.57590811179e-05
4.8660850265e-05
5.10541912741e-05
5.29994003443e-05
5.4555756092e-05
5.57801448446e-05
5.6725054402e-05
5.74372135345e-05
5.79571811047e-05
5.83195528657e-05
5.85534738954e-05
5.86832772753e-05
5.87291536046e-05
5.87077853809e-05
5.86331158747e-05
5.85149401643e-05
2.37829013268e-05
5.31883729283e-05
4.01427754063e-05
4.31321164536e-05
4.25535233331e-05
4.22559274273e-05
4.20982858795e-05
4.20219116995e-05
4.19954726528e-05
4.20001224192e-05
4.20247127524e-05
4.20627082394e-05
4.2110221326e-05
4.21650238273e-05
4.22260449056e-05
4.22930398827e-05
4.23663138634e-05
4.24464776303e-05
4.25342059753e-05
4.26299811727e-05
4.27337833022e-05
4.28446704022e-05
4.29600980492e-05
4.30743802705e-05
4.31762774539e-05
4.32510715917e-05
4.3279995069e-05
4.32761553774e-05
4.32361394476e-05
2.44379582557e-05
4.28956098905e-05
5.42704791716e-05
5.15511529526e-05
5.36381452041e-05
5.51388515681e-05
5.627950406e-05
5.72572530529e-05
5.82920297246e-05
5.93861207347e-05
6.05320133468e-05
6.17440122695e-05
6.30405434606e-05
6.44381708074e-05
6.59519934847e-05
6.75955093057e-05
6.93797301471e-05
7.13123789723e-05
7.33974005314e-05
7.56347624135e-05
7.80207054864e-05
8.05488590345e-05
8.32132057956e-05
8.60150086568e-05
8.89783261784e-05
9.21836701723e-05
9.58344472656e-05
0.000100252564536
0.000106443316762
0.000116068147284
0.000131454215729
0.000153989796938
2.46911221419e-05
4.18443716051e-05
4.91126130564e-05
5.83782051161e-05
5.50156363996e-05
5.58022924863e-05
5.89811852814e-05
6.34753614594e-05
6.90721502432e-05
7.43494993528e-05
7.85626254916e-05
8.23213260043e-05
8.60574022931e-05
8.98602252186e-05
9.37448798546e-05
9.77322776062e-05
0.000101837402995
0.000106064079822
0.000110409462649
0.000114867526967
0.00011943023877
0.000124088017521
0.000128830214828
0.000133645873772
0.000138525273493
0.000143463516289
0.000148468912885
0.000153582335939
0.000158921173572
0.000164776809912
0.000171819492756
0.000181455639633
0.00019631254606
0.000221169311828
0.000261514726466
0.000320000886672
2.54605923287e-05
4.32521772512e-05
5.09156938435e-05
6.0411989294e-05
5.67103622719e-05
5.6460690686e-05
5.7933828341e-05
6.14468025481e-05
6.65092347767e-05
7.28988171763e-05
8.02587658854e-05
8.8368155951e-05
9.6770424806e-05
0.000104681509449
0.000111475577156
0.000117485230089
0.000123169921207
0.000128710480016
0.000134169068208
0.000139597953359
0.000145042635684
0.000150534450319
0.00015609389657
0.000161734932549
0.000167466767037
0.000173294662791
0.000179220941532
0.000185246889447
0.000191376724109
0.00019762641046
0.000204043566138
0.000210752601917
0.000218056318528
0.000226658839002
0.000238126135951
0.000255711860033
0.000285330885075
0.000335614110305
0.000414594340694
0.000522901759364
2.61821671618e-05
4.45806089079e-05
5.26669692883e-05
6.25757164855e-05
5.89253320926e-05
5.85766819334e-05
5.98708059368e-05
6.30184869328e-05
6.73831577597e-05
7.26437294542e-05
7.86067857427e-05
8.57177263342e-05
9.40546542323e-05
0.000103239092817
0.000112967749445
0.000122955777084
0.000132868523853
0.000142198955813
0.000150475998855
0.00015782868721
0.000164630233687
0.000171100458608
0.000177338051925
0.00018341525182
0.00018939520836
0.000195326506158
0.000201245231741
0.000207179740728
0.000213153486664
0.000219186620353
0.000225297959152
0.000231508660137
0.000237850124811
0.000244381806826
0.000251231935768
0.000258690310102
0.000267416222331
0.00027888542542
0.000296265772022
0.000325792830939
0.000377825935451
0.000464706760699
0.000593043684989
0.000757071096926
2.695653333e-05
4.59642686395e-05
5.44409296317e-05
6.47466650384e-05
6.11767590844e-05
6.08052108024e-05
6.20421496563e-05
6.50822261948e-05
6.9325026591e-05
7.44317787501e-05
8.01428855946e-05
8.68116897428e-05
9.44334509641e-05
0.000102645385831
0.000111373372302
0.00012075810037
0.0001307673907
0.000141192172906
0.000151816658605
0.000162434659557
0.000172799520654
0.000182568637094
0.000191411080357
0.000199350688135
0.000206647491865
0.000213506906627
0.000220040195517
0.000226326234103
0.000232433826566
0.000238419114326
0.000244326170958
0.000250191129885
0.000256045509597
0.00026191876607
0.000267841929771
0.000273854793339
0.000280021654424
0.000286467024206
0.000293457306965
0.000301585732624
0.000312178423374
0.000328126474017
0.000355342416509
0.000404446450056
0.00049039347504
0.000626133986076
0.000810874405367
0.00102847827165
2.75162339766e-05
4.64534684594e-05
5.27682097043e-05
5.84948029768e-05
6.80257534662e-05
6.41658231585e-05
6.35390703e-05
6.46008539443e-05
6.74860211336e-05
7.16266356202e-05
7.66788184592e-05
8.23378860179e-05
8.89268031333e-05
9.64393862248e-05
0.000104494777403
0.000112956205463
0.000121916380879
0.000131323101805
0.00014101031981
0.000150955226582
0.000161200735007
0.000171694199287
0.000182321647884
0.000192943205036
0.000203426797354
0.000213593129514
0.000223201625317
0.000232021248157
0.000240029202443
0.000247390251677
0.000254271535959
0.000260780733145
0.000266996043275
0.000272985473531
0.000278806661423
0.00028450672144
0.000290125531845
0.000295699378283
0.000301264882545
0.000306865600265
0.000312565980336
0.000318482732418
0.000324856685347
0.000332216650887
0.000341744305523
0.000356043115678
0.000380571816357
0.000425631282769
0.000507164089791
0.000642274555263
0.000837714655653
0.00107966927803
0.00134074500054
2.82787346907e-05
4.7872498341e-05
5.45229538091e-05
6.05092314037e-05
7.02684085916e-05
6.63832925389e-05
6.53537322897e-05
6.545980155e-05
6.67216392595e-05
6.97593818569e-05
7.40619164824e-05
7.92328772938e-05
8.49679128821e-05
9.15979672746e-05
9.91338563429e-05
0.000107201729783
0.000115631507561
0.000124512616829
0.000133794548334
0.000143301702172
0.00015297159568
0.000162827800392
0.000172826064637
0.00018289913077
0.000193046093331
0.000203288782472
0.000213587027923
0.000223872310916
0.00023405343621
0.00024404002337
0.000253698380559
0.000262851777195
0.000271335519945
0.000279110639204
0.000286275850754
0.00029295742903
0.000299250629879
0.000305228264574
0.000310954059611
0.000316483801843
0.000321865121529
0.000327140202446
0.000332350026814
0.000337540706345
0.000342775924558
0.000348164674358
0.000353924948572
0.000360530058565
0.000369038375986
0.000381803192924
0.000403854983811
0.000445033117557
0.000521577199091
0.000653208398119
0.000852246557907
0.00111091389414
0.00140060953487
0.00168806277724
2.90243904887e-05
4.93234192336e-05
5.63224095933e-05
6.26035192626e-05
7.27186368908e-05
6.89216122715e-05
6.78739606151e-05
6.79162090383e-05
6.90353390092e-05
7.17758564851e-05
7.55500294045e-05
7.98432160787e-05
8.42788969084e-05
8.93183308966e-05
9.54832859768e-05
0.00010273660855
0.000110620168492
0.000118933042828
0.000127734579893
0.000136962774069
0.000146434702297
0.000156050147108
0.000165823478134
0.000175706128852
0.000185620721851
0.000195543075788
0.000205486172481
0.000215424914868
0.000225332826033
0.000235215641031
0.000245086641935
0.000254918807049
0.000264664185477
0.000274257905341
0.000283628753236
0.000292673722322
0.00030125978829
0.00030926711089
0.00031665532828
0.000323481905878
0.000329838817255
0.000335806212815
0.000341449615724
0.000346827495062
0.00035199273905
0.000356992853153
0.000361872824009
0.000366681075018
0.000371480818008
0.000376374784518
0.000381562059102
0.000387469657519
0.000395052450164
0.000406450892031
0.000426316521318
0.000464016078769
0.000535792562603
0.000663141681523
0.00086274495834
0.00113191391615
0.00144439990503
0.00176261585518
0.00205581412891
2.97699228029e-05
5.07713622761e-05
5.81181948579e-05
6.46920055943e-05
7.51763249734e-05
7.14926666285e-05
7.04830918947e-05
7.0527909333e-05
7.16130543287e-05
7.42662449731e-05
7.79300115007e-05
8.21028753628e-05
8.63630737691e-05
9.11196236649e-05
9.6830847025e-05
0.000103390163011
0.000110278739998
0.000117344796824
0.000124819841084
0.000132951879044
0.00014169752495
0.000150830608432
0.000160222596466
0.000169848778303
0.00017963764966
0.000189494214709
0.000199363508404
0.000209242453325
0.000219097881709
0.00022889452935
0.000238624760434
0.000248298774493
0.000257904454328
0.000267431394907
0.000276882641446
0.000286263732098
0.000295553163421
0.000304714321745
0.000313695111962
0.000322434830187
0.00033085167104
0.00033884362336
0.000346322122492
0.000353251176164
0.00035966402036
0.000365627051009
0.000371206227353
0.000376459656152
0.000381440849879
0.000386200156684
0.000390785861562
0.000395248542946
0.000399651247252
0.000404091738988
0.00040875345169
0.000414024088067
0.000420768882217
0.000430939940869
0.000448840756506
0.000483358005228
0.000550558085709
0.000673205826698
0.000871630896824
0.00114773347779
0.00147753525411
0.00182211060521
0.00214554388644
0.00242536286809
3.06016779256e-05
5.2350592519e-05
6.00388377095e-05
6.6891220284e-05
7.77442866896e-05
7.41563173204e-05
7.31918952458e-05
7.32549591727e-05
7.43335962238e-05
7.69477036866e-05
8.05764789972e-05
8.47383270041e-05
8.89707330617e-05
9.36672876628e-05
9.92785683107e-05
0.000105707637472
0.000112446519971
0.000119288876214
0.000126431500874
0.000134085391526
0.000142173723819
0.000150448044135
0.000158855235718
0.000167500405588
0.000176483979474
0.00018577224005
0.00019526311376
0.000204885741728
0.000214605765985
0.000224365960307
0.000234112275412
0.000243812396199
0.000253459129353
0.000263031624325
0.000272511091701
0.000281893053306
0.0002911831318
0.000300375515915
0.000309463303418
0.00031844512516
0.000327319136868
0.000336067090975
0.000344656052253
0.000353041414241
0.00036117028694
0.000368975327012
0.000376377671192
0.000383311088291
0.000389746181791
0.000395702709812
0.000401229381483
0.000406380472552
0.000411207583245
0.000415760362851
0.000420088136773
0.000424242820629
0.000428287184072
0.000432314585804
0.000436494621251
0.000441179664796
0.000447152513762
0.000456186906046
0.000472241384363
0.000503676261459
0.00056618481113
0.000683384492926
0.00087883241057
0.00115895492763
0.00150223949007
0.00186860551786
0.00221875085679
0.00252642660152
0.00277940501536
3.13131168069e-05
5.35617713864e-05
6.0688117622e-05
6.48758143455e-05
7.05607122696e-05
8.12065013403e-05
7.7388118857e-05
7.6264556586e-05
7.62489072898e-05
7.72683062035e-05
7.98235873136e-05
8.34322917613e-05
8.76246581594e-05
9.18896636245e-05
9.66058303724e-05
0.000102223644802
0.000108661355236
0.000115425508546
0.000122265786308
0.000129372111706
0.000136954779691
0.000144942636707
0.000153088447033
0.000161298054078
0.000169652365524
0.000178232492665
0.000186993327488
0.000195834789925
0.000204746618785
0.000213784215267
0.000222987691683
0.000232334459348
0.000241775899024
0.000251274194857
0.000260802379725
0.000270320746491
0.000279792836485
0.000289194963037
0.000298516993067
0.000307744460263
0.000316863528403
0.00032586860534
0.000334760178709
0.000343533870615
0.000352182470958
0.00036069986308
0.000369078682603
0.000377300482015
0.000385335172724
0.000393142977373
0.000400677553843
0.00040788339227
0.000414699564548
0.000421076452335
0.00042699184193
0.00043245865533
0.000437514064444
0.000442203559625
0.000446573716312
0.000450672074107
0.000454549824534
0.000458268453356
0.000461916570106
0.000465650157877
0.000469787233869
0.000475029305178
0.000482969106141
0.000497197652264
0.000525455826275
0.000582798878333
0.000693226842736
0.00088319372946
0.0011639890308
0.00151727870882
0.00190211595543
0.00227589931856
0.00260888132288
0.00288649769173
0.00310547788624
3.21788185336e-05
5.52395788822e-05
6.27153959093e-05
6.70945466797e-05
7.29827829129e-05
8.38985808341e-05
8.01467814203e-05
7.89273315844e-05
7.85765241123e-05
7.87638730208e-05
7.99208971055e-05
8.26588094172e-05
8.64687048636e-05
9.08438479853e-05
9.52466625207e-05
0.000100073849214
0.000105789492613
0.000112325172167
0.000119194242176
0.00012611510069
0.000133276564217
0.00014089814139
0.000148922761321
0.000157113541927
0.000165348063482
0.000173699791711
0.000182250457839
0.000190959187589
0.000199720810801
0.000208499959987
0.00021733404542
0.000226253036132
0.000235233682906
0.000244237958193
0.00025327106754
0.000262367236297
0.000271543200911
0.000280783725498
0.000290060719708
0.000299349482171
0.000308628812193
0.000317870486187
0.000327046215976
0.000336135233302
0.000345125692878
0.000354005103434
0.000362761251526
0.000371385981434
0.000379876153655
0.000388225860546
0.000396426695583
0.000404468957143
0.000412341930553
0.000420026945656
0.000427496451613
0.00043471565264
0.000441644701711
0.000448238655743
0.000454451179442
0.000460245858132
0.000465607256414
0.000470545512214
0.000475090631411
0.000479281967113
0.000483162884277
0.000486781374712
0.000490195568941
0.000493487885348
0.000496799518996
0.000500412676848
0.000504944280011
0.000511794931179
0.000524148556981
0.000548998287211
0.000600421311194
0.00070219386768
0.00088323672878
0.00116028938426
0.00151956993516
0.00192000231311
0.00231537395306
0.0026721122586
0.00297328609255
0.00321358611317
0.00339649980022
3.2925553101e-05
5.66848761113e-05
6.42474077389e-05
6.78872414645e-05
7.08985976071e-05
7.64074549951e-05
8.73703698799e-05
8.34300623085e-05
8.20695319498e-05
8.16498423769e-05
8.17780244676e-05
8.28354493947e-05
8.53936837143e-05
8.89261033136e-05
9.28543293755e-05
9.65241827979e-05
0.000100246292441
0.000104651899967
0.000110176329277
0.000116665909455
0.000123565175786
0.000130552338842
0.000137799161871
0.000145525123157
0.000153675084755
0.000162012114261
0.000170389883415
0.00017887405443
0.000187552354804
0.000196392773661
0.000205292737587
0.000214199472341
0.000223140436848
0.000232144199839
0.000241188070024
0.000250228004365
0.000259253080217
0.000268284832374
0.000277334896778
0.000286391437799
0.000295439850788
0.000304484955923
0.000313548460229
0.000322636446667
0.000331736783456
0.000340829474451
0.000349893932416
0.000358913356189
0.000367865468388
0.000376727317187
0.000385479430645
0.000394109642135
0.000402606072001
0.000410957198795
0.000419153689213
0.000427189926909
0.000435058990024
0.00044275175766
0.000450257449816
0.000457563911685
0.000464653534328
0.00047150225354
0.000478080728871
0.000484356329201
0.000490293771226
0.000495858815175
0.000501025835469
0.000505785320053
0.000510146854519
0.000514136151976
0.000517788651089
0.000521146704652
0.000524262705274
0.000527210603118
0.000530114651856
0.00053321854833
0.000537049574232
0.00054280274832
0.000553212271646
0.000574386805115
0.000619042020545
0.000709958999786
0.00087779405648
0.00114529413242
0.0015052790278
0.00191810086157
0.00233375552397
0.00271380341238
0.0030379454795
0.00329997540501
0.00350150069202
0.00364972018713
3.36745036801e-05
5.8238313801e-05
6.61822263399e-05
7.00132181357e-05
7.31670715464e-05
7.8878701313e-05
9.01252194469e-05
8.62913179252e-05
8.49191040266e-05
8.43789757356e-05
8.41591681794e-05
8.43627527771e-05
8.55140332233e-05
8.81900787234e-05
9.18353479424e-05
9.58640534634e-05
9.95842221436e-05
0.000103300771544
0.00010763333024
0.000112989730351
0.000119167331831
0.000125538117505
0.000131733607158
0.000137957065937
0.000144630772291
0.000152013706671
0.00016000596565
0.000168314933601
0.000176751202794
0.000185353274828
0.000194197707515
0.000203246675947
0.000212388368302
0.000221550588742
0.000230748737863
0.000240011634451
0.000249319464096
0.000258626257595
0.000267909196078
0.000277178706059
0.00028644296258
0.000295687877809
0.000304892896277
0.000314053278989
0.000323181238708
0.000332280976727
0.000341345379225
0.000350367676298
0.0003593494737
0.000368303086387
0.000377228759041
0.000386116190708
0.000394949412628
0.000403710685415
0.000412385512323
0.000420956130617
0.000429403901281
0.000437712263177
0.000445869607116
0.000453865577623
0.000461690116889
0.000469334799452
0.000476793348854
0.000484059076964
0.000491123522833
0.000497977023956
0.000504607836575
0.000511000840793
0.00051713622065
0.000522990606129
0.00052853845383
0.000533753260509
0.00053861069672
0.000543093674844
0.000547197548401
0.000550932216825
0.000554320926929
0.000557397212327
0.000560205395266
0.000562808715432
0.000565312246162
0.000567918808283
0.000571062587471
0.000575724566535
0.000584160025545
0.000601484646429
0.000638692544098
0.000716681681339
0.000866642050291
0.00111739417791
0.00147086875388
0.00189161632208
0.00232628933387
0.00273025651826
0.00307850525679
0.00336274893973
0.003583988765
0.00374860928412
0.00386533130371
3.44832859375e-05
5.98926504488e-05
6.82231928734e-05
7.22283362132e-05
7.55098741678e-05
8.14281097472e-05
9.29985194546e-05
8.91743209999e-05
8.77692922416e-05
8.72141550274e-05
8.6988064093e-05
8.71626095394e-05
8.82239783512e-05
9.07157492073e-05
9.41066870085e-05
9.78074640667e-05
0.000101046952871
0.000103990522838
0.000107186224505
0.000111233635877
0.000116468352338
0.00012262533594
0.000129030436759
0.00013526249111
0.000141492758533
0.000148126610963
0.000155399598567
0.000163172870987
0.000171097413074
0.000178967072371
0.000186885364621
0.000195082851501
0.000203702869289
0.000212702065639
0.000221933789519
0.000231285979234
0.000240747912083
0.000250329865081
0.000260000227529
0.000269698702152
0.000279385245488
0.000289055818999
0.000298714620908
0.000308346583805
0.000317927134263
0.000327443476519
0.000336897470719
0.000346289017976
0.000355608242675
0.000364844061239
0.000373993138337
0.000383062200944
0.000392052385314
0.000400959578781
0.00040978020584
0.000418514026553
0.00042716725495
0.000435737814683
0.000444217590959
0.000452594201757
0.000460853934478
0.000468985048531
0.000476974432548
0.000484808208226
0.000492474368921
0.000499963400559
0.000507267559619
0.000514379330252
0.000521292595157
0.0005280020208
0.000534502278326
0.000540786601788
0.000546847310583
0.000552674714973
0.000558256635574
0.000563577688358
0.000568620264411
0.000573365125399
0.000577793093944
0.000581887512488
0.000585637695636
0.000589042634314
0.000592112687985
0.000594869939775
0.000597348287779
0.00059959854059
0.000601705322684
0.000603830139097
0.000606315210095
0.000609930378342
0.000616450611864
0.000629953549622
0.000659460487111
0.000723124698481
0.000850979294502
0.00107691639047
0.00141428879682
0.00183609350982
0.00228749567257
0.0027164420177
0.0030911464806
0.00339970423892
0.00364207863335
0.00382467384849
0.00395600996434
0.00404519757931
3.5297417476e-05
6.15390400931e-05
7.01462764463e-05
7.40314340376e-05
7.63992409329e-05
7.91206534401e-05
8.49150175892e-05
9.65922035487e-05
9.22399409886e-05
9.03895649618e-05
8.96322085622e-05
8.93090206531e-05
8.93908027742e-05
9.03021749063e-05
9.25735348727e-05
9.57687468652e-05
9.93754293997e-05
0.000102596711113
0.000105537623079
0.000108716916018
0.00011271947046
0.00011787040357
0.000123889398249
0.000130041307186
0.000135821480177
0.000141339283545
0.000147046647319
0.000153412161435
0.000160639688191
0.000168527501536
0.000176655420637
0.000184753025582
0.000192886202853
0.000201264524025
0.000210008502589
0.000219042651503
0.000228183287247
0.000237317348401
0.000246495771437
0.000255836599675
0.000265413547353
0.000275208261479
0.000285143431432
0.000295150595902
0.000305201116836
0.000315280139555
0.000325357871498
0.000335394894968
0.000345364037288
0.000355252508148
0.000365054691028
0.000374758203688
0.000384348187268
0.000393816725376
0.000403162638191
0.000412384227128
0.000421475982755
0.000430432625337
0.000439252781607
0.000447941334667
0.000456499574712
0.00046492652795
0.00047322128041
0.000481384211411
0.000489418994365
0.000497324346419
0.000505095048047
0.000512723109258
0.000520199869468
0.000527517312383
0.000534667162377
0.000541640576466
0.00054843018713
0.000555029764925
0.000561434469581
0.000567639585456
0.00057364141899
0.000579436389321
0.000585020762055
0.000590389693781
0.000595537538157
0.000600456880434
0.000605138450861
0.000609570665816
0.000613740569506
0.000617634087799
0.000621237615612