/*--------------------------------*- C++ -*----------------------------------*\
| =========                 |                                                 |
| \\      /  F ield         | OpenFOAM: The Open Source CFD Toolbox           |
|  \\    /   O peration     | Version:  2.3.1                                 |
|   \\  /    A nd           | Web:      www.OpenFOAM.org                      |
|    \\/     M anipulation  |                                                 |
\*---------------------------------------------------------------------------*/
FoamFile
{
    version     2.0;
    format      ascii;
    class       volScalarField;
    location    "400";
    object      p;
}
// * * * * * * * * * * * * * * * * * * * * * * * * * * * * * * * * * * * * * //

dimensions      [0 2 -2 0 0 0 0];

internalField   nonuniform List<scalar> 
10011
(
-12.6090965221
-15.3381121173
-16.2428009869
-16.5695204394
-16.8502913751
-17.1399468871
-17.4376403623
-17.7563286762
-18.1112482549
-18.5160080246
-18.9856361244
-19.5401952058
-20.2089044769
-21.0371101146
-22.0975437912
-23.5206277869
-25.6230695573
-29.5328596894
-16.3973381051
-16.7758592142
-16.9434709551
-16.9849849772
-17.108236845
-17.3050476467
-17.546596879
-17.8295052711
-18.1603342596
-18.5479385533
-19.0044106277
-19.547700398
-20.2051620715
-21.0179706835
-22.0506624793
-23.4122607114
-25.2868588408
-27.7575019304
-16.2420839729
-16.1101986787
-16.368147651
-16.5887273007
-16.82711756
-17.0990795983
-17.3927738997
-17.7113838539
-18.0657627966
-18.4677390747
-18.9309193173
-19.4732567941
-20.1193041673
-20.9042346611
-21.879735583
-23.118387054
-24.7047280061
-26.5915474234
-16.1537267498
-16.1658549035
-16.4946704371
-16.7484462531
-16.9743062976
-17.2201312418
-17.488332498
-17.7838065206
-18.1167769348
-18.4980503093
-18.9396142727
-19.4565645436
-20.0688404212
-20.8029104442
-21.6921181837
-22.7703671912
-24.0427303155
-25.3663959737
-16.1831138359
-16.2549812107
-16.523254689
-16.7443966886
-16.9494591296
-17.1808786999
-17.4408348427
-17.7309113449
-18.0582668031
-18.4315391406
-18.8604724601
-19.3569797034
-19.9355639901
-20.6128168921
-21.4040214437
-22.3116511815
-23.2939938309
-24.1913801636
-16.2463680914
-16.3189492638
-16.5346173976
-16.7413412724
-16.9442667198
-17.1720370974
-17.4271881864
-17.7107299317
-18.0284424529
-18.3875325042
-18.7956404018
-19.2611588086
-19.7928822244
-20.3978404101
-21.0760049909
-21.8083645975
-22.5326565303
-23.1080087977
-16.2963041704
-16.3593601829
-16.5398646119
-16.7342906628
-16.9318401094
-17.1511723424
-17.3960153955
-17.6676093218
-17.9703080982
-18.3093994494
-18.6900237945
-19.1168365765
-19.5928952922
-20.1168655866
-20.6776524797
-21.2451015666
-21.7553871231
-22.1017379737
-16.3298176694
-16.3864210298
-16.5442408734
-16.7256378236
-16.9150408248
-17.1248560825
-17.3587591527
-17.6176932686
-17.9045340902
-18.2228061318
-18.575415754
-18.9639318788
-19.38719463
-19.838589844
-20.3015608308
-20.7433027284
-21.1068427711
-21.3144633664
-16.3537791788
-16.4056808233
-16.5453643168
-16.7139958734
-16.894543176
-17.0946172306
-17.3172518449
-17.5629280358
-17.8333085374
-18.1303545377
-18.4550622321
-18.8065403963
-19.1805768334
-19.5672541229
-19.9475521388
-20.2895410393
-20.5450162104
-20.6574866258
-16.3730314473
-16.4200846273
-16.5421417486
-16.6964948414
-16.866025737
-17.0540546725
-17.262609327
-17.4916365447
-17.7415376051
-18.0126527147
-18.3040926075
-18.6127449766
-18.9319849282
-19.2498645094
-19.5469764767
-19.7948422752
-19.9557473012
-19.9915449334
-16.3848692728
-16.4267271295
-16.5321694496
-16.67095414
-16.8270226753
-17.0002902137
-17.1915838599
-17.4001672027
-17.6251944052
-17.8654453192
-18.1183346437
-18.3789945409
-18.6392822677
-18.8866566483
-19.1032171907
-19.2656736429
-19.3468548409
-19.3233052536
-16.3859168059
-16.4223527728
-16.5122163612
-16.6342516585
-16.7742652073
-16.9298183825
-17.100420135
-17.2845426752
-17.4802049098
-17.6848365384
-17.8945290141
-18.1033197861
-18.3025751849
-18.4805126229
-18.6221154359
-18.7099567253
-18.7261411291
-18.6579364617
-16.3721804675
-16.4030705024
-16.4781466471
-16.5823946293
-16.7038308057
-16.8386047937
-16.9849906007
-17.1406693926
-17.3027444984
-17.4676589319
-17.6307117748
-17.785609692
-17.9242085332
-18.0365114765
-18.1110671564
-18.1360256333
-18.1007827247
-17.9997361527
-16.3390265881
-16.3643040335
-16.4251173583
-16.5107247322
-16.611302395
-16.7223622652
-16.8412236956
-16.9649210431
-17.0899652272
-17.2122932338
-17.3270240783
-17.4282655253
-17.5091186466
-17.5619267612
-17.5788071989
-17.5525537861
-17.4777323186
-17.3530361117
-16.2813758094
-16.301025814
-16.3479094278
-16.4142484649
-16.4921561496
-16.5770776471
-16.6657801996
-16.7549361932
-16.8408640826
-16.9195161081
-16.9864101995
-17.0366175708
-17.0649003678
-17.066014043
-17.0351530198
-16.9685583876
-16.864115851
-16.7228345301
-16.1941310141
-16.2082093148
-16.2414938624
-16.2883494361
-16.3425796996
-16.3999472199
-16.457097799
-16.510711157
-16.5573282168
-16.5933770631
-16.6152032362
-16.6191426728
-16.6016800568
-16.559686373
-16.4906985925
-16.3932545152
-16.2671555767
-16.1144649285
-16.0729366264
-16.0815792092
-16.1018196101
-16.1296667589
-16.1603890757
-16.1902941458
-16.216277898
-16.2353894096
-16.2447447099
-16.241568918
-16.2232566522
-16.1874532561
-16.1321686362
-16.0559129376
-15.9578253579
-15.8378254082
-15.6966995036
-15.5368803792
-15.9268585969
-15.9308919726
-15.9401849742
-15.9519362822
-15.9625478785
-15.9689034976
-15.9683568601
-15.9585391296
-15.9372952936
-15.9027107863
-15.8531618074
-15.7873690198
-15.7044547086
-15.6039979834
-15.4860708207
-15.351297299
-15.2008678042
-15.0372702239
-15.7815768316
-15.7825176007
-15.7843918411
-15.7851073037
-15.7816903202
-15.7713966381
-15.7520299491
-15.7218016449
-15.6792100342
-15.6230434197
-15.552416678
-15.4667944236
-15.3660051755
-15.2502499311
-15.1200935795
-14.9764869363
-14.8207547534
-14.6553673611
-15.6511547617
-15.6502612138
-15.6478739106
-15.6422234411
-15.630311453
-15.6094658636
-15.5778968607
-15.5343387229
-15.4778094838
-15.4076234646
-15.3234252533
-15.2251822808
-15.1131685112
-14.9879496416
-14.8503560008
-14.7014919854
-14.5427147516
-14.3764736291
-15.5360452559
-15.5340528628
-15.5298790922
-15.5216719531
-15.5054886733
-15.4784892212
-15.4393794648
-15.3873847448
-15.3219196024
-15.2426994207
-15.1497704751
-15.0434603402
-14.9243412364
-14.7932089489
-14.6510517656
-14.4990593213
-14.3385994384
-14.1721558216
-15.4351474985
-15.4320964502
-15.4282810129
-15.4209242999
-15.4036554614
-15.3735177087
-15.3300398926
-15.2728987949
-15.2017759953
-15.1167077936
-15.0180702904
-14.906466942
-14.7826836438
-14.6476718922
-14.5025174378
-14.3484499887
-14.1868137142
-14.0201170101
-15.3470406242
-15.3417999466
-15.3406040745
-15.3376161094
-15.3217769644
-15.2906756976
-15.2451834653
-15.1853257317
-15.1109564582
-15.0224103812
-14.920345061
-14.8055689146
-14.6790169059
-14.5417472785
-14.3949113921
-14.2397683189
-14.0776569705
-13.9112558015
-15.2704977504
-15.26014958
-15.2642294637
-15.2685576104
-15.2553330868
-15.2244889579
-15.1784339255
-15.1171550697
-15.0406782251
-14.9497406125
-14.8453009967
-14.7283470891
-14.5999324481
-14.4611909275
-14.3133014176
-14.1574949748
-13.9949911458
-13.8284120976
-15.2040376782
-15.1846364238
-15.2013571262
-15.2159991147
-15.2052084172
-15.1759525181
-15.1317552456
-15.0715501017
-14.9953120451
-14.9041417446
-14.7992382128
-14.6817310972
-14.5527887746
-14.413635758
-14.265507366
-14.1096531114
-13.9472603792
-13.7812766587
-15.1427978585
-15.0972863025
-15.1432688739
-15.1726676472
-15.1599407613
-15.1278275528
-15.0820173865
-15.0204549789
-14.9431848333
-14.8514997766
-14.7465595689
-14.629401487
-14.5011337629
-14.3629403623
-14.2160101867
-14.0614990942
-13.9003144971
-13.7348408576
-15.1249193699
-14.9933235247
-15.0931139328
-15.1644609332
-15.1715549572
-15.1509322695
-15.1102031695
-15.0489895807
-14.9695926376
-14.8746781202
-14.766065955
-14.6451659051
-14.513328762
-14.3718942158
-14.2221524409
-14.0653255311
-13.9023296736
-13.7358994691
-15.2155014822
-14.8676386363
-14.9038564844
-14.9469944426
-14.9623843373
-14.966473221
-14.9509833552
-14.9120025724
-14.8519115406
-14.7735650912
-14.6789799077
-14.5698817302
-14.4479839793
-14.3149747056
-14.17246904
-14.0219870134
-13.8645655515
-13.7026752212
-15.5109181589
-15.5592468214
-15.552243422
-15.4194748217
-15.3094486604
-15.2292223915
-15.1511076454
-15.0646929891
-14.9688811732
-14.8634819054
-14.7481685476
-14.6230300859
-14.4886363435
-14.3458652469
-14.195782125
-14.0396287456
-13.8785213497
-13.7167375681
-11.8156431318
-13.9922321408
-14.7506386858
-14.9111489155
-14.96895678
-14.9956605847
-14.9858555732
-14.9445479683
-14.8797431427
-14.7962389037
-14.6966653138
-14.5830149484
-14.4571284736
-14.3207531105
-14.1755762962
-14.0233581349
-13.8658073268
-13.7103208529
18.4845002989
18.6435899982
19.1896914859
18.8831794973
18.6002049186
18.4607375758
18.3739505468
18.290967942
18.210738793
18.137937862
18.0723791506
18.0123725044
17.9568357445
17.9051981952
17.8570305432
17.8119560254
17.7696792197
17.7300099508
17.6928815328
17.6583822318
17.6268116861
17.5987727456
17.5753216249
17.5582035288
17.550480891
17.5575019369
17.5877425168
17.6601645873
17.7793634803
17.8579617178
18.0569389834
18.247994368
18.5124654222
18.6979246576
19.0000921384
18.8566268987
18.6178964167
18.472962323
18.3792329262
18.2940910775
18.2130214367
18.1394749276
18.073311999
18.0128929292
17.957081925
17.905253559
17.85694548
17.8117590437
17.7693809003
17.729604777
17.6923485834
17.6576845255
17.6258935609
17.5975561053
17.5737106813
17.556176546
17.5479662191
17.5542221695
17.5828605793
17.651100172
17.7419595699
17.1300472612
17.2969016425
17.44448419
17.6285307781
17.868902983
18.0364109359
18.2273994736
18.4576030268
18.6191630865
18.7950429087
18.7374481312
18.5691117486
18.4408296893
18.352075955
18.2730030913
18.1971889549
18.1272171855
18.0635520886
18.0050426635
17.9507402227
17.9001046017
17.8527353739
17.8082778912
17.7664445321
17.7270408583
17.6899859671
17.6553444161
17.6233812665
17.5946558259
17.5701911183
17.5517987626
17.5425671034
17.5474673923
17.5728829837
17.6320505966
17.6911843408
16.4450603375
16.6047923127
16.7420288415
16.9161077106
17.1418031602
17.2732835047
17.4293986903
17.6251699764
17.8478597585
18.0132685807
18.1936889431
18.3872655653
18.5360016282
18.6610183521
18.6457401903
18.5314346889
18.4215967392
18.336976172
18.2613839187
18.188711868
18.1207111349
18.0582361524
18.0005788192
17.9469478701
17.8968421249
17.8498801456
17.8057164029
17.7640592091
17.7246985314
17.6875277544
17.6525750807
17.6200582098
17.5904850902
17.5648471836
17.54497069
17.5339515479
17.5365969893
17.5576768261
17.6062081014
17.6385046752
15.7728009366
15.9307320244
16.062990886
16.2324464921
16.4566023131
16.5802991861
16.7273022318
16.9116118085
17.1178908829
17.2587150262
17.4181985027
17.6096075493
17.8069253367
17.9735424806
18.1424047193
18.3123933834
18.4482077583
18.5451901074
18.5475805705
18.4709370394
18.3815164858
18.3049794194
18.2353211116
18.1680177824
18.1041551325
18.0447429864
17.9894808354
17.9377899637
17.8892544642
17.8435456269
17.8003543303
17.7594063083
17.7204908827
17.6834854355
17.6483887325
17.6153836127
17.584963951
17.5581770909
17.5369979165
17.5246044184
17.5253561912
17.542208579
17.5805815746
17.5911464163
15.1028899085
15.2598147622
15.3894384879
15.5573047372
15.7837235163
15.9046969825
16.0479194184
16.22845937
16.432646523
16.5680173136
16.7193393488
16.9006196678
17.0839580321
17.2350082766
17.3952844823
17.5767548239
17.7608528605
17.9267713762
18.0857800307
18.2375568279
18.3600855188
18.4418078763
18.4548237528
18.4060548525
18.3367534562
18.2703874065
18.2075408367
18.1459356262
18.0864882734
18.0303354867
17.9775685351
17.9278643622
17.8809237618
17.8364814935
17.7942664044
17.7540185939
17.7155209759
17.6786288619
17.6433131368
17.609749674
17.5785029295
17.5508290325
17.5289981974
17.5162182102
17.5160101639
17.5289271251
17.5574953355
17.549977611
14.2696767894
14.4266064191
14.5455274499
14.6922541971
14.8737313398
15.1094329895
15.2299285231
15.3721178671
15.5529718172
15.7592453372
15.8936213039
16.0420706629
16.2206767026
16.4008960532
16.5470859048
16.7003792496
16.8735554985
17.0481510917
17.2066707674
17.3675457557
17.5401426006
17.7133433257
17.8737337295
18.0231733158
18.1606812605
18.2719191892
18.345232862
18.3655670742
18.3368257882
18.2849773135
18.2292786276
18.1738358835
18.1183851318
18.0639386543
18.0116921234
17.9620260085
17.9148464171
17.8699707095
17.8271964759
17.7862902799
17.7470077016
17.7091283556
17.6724952922
17.6370842221
17.6031488969
17.5714809823
17.5437185364
17.5224331123
17.5105054058
17.5099959267
17.5187072731
17.5369209629
17.513291253
13.4251511067
13.5881398792
13.7083210599
13.8558726325
14.0397677557
14.2789258602
14.3917814759
14.5185637031
14.6866340955
14.8790913285
15.0886912741
15.2215143656
15.3690626027
15.5485134071
15.7290702685
15.8741284711
16.0250189987
16.1957425543
16.3675340393
16.5225208598
16.6785408235
16.8457410389
17.0143091717
17.1742150889
17.3334034036
17.4979706073
17.6615059684
17.8148656769
17.9559107444
18.0825594666
18.1849898377
18.2535593063
18.2795592843
18.2657119538
18.2287867803
18.183777066
18.136197489
18.0872544562
18.0381969592
17.9902784411
17.9441010534
17.8997800196
17.8572549974
17.8163918705
17.7769970124
17.738843692
17.7017151385
17.6654681701
17.6301558876
17.596253875
17.5649581843
17.5383317402
17.518930577
17.5086373381
17.5074736116
17.5106973052
17.517328246
17.4786356958
12.5588671932
12.7289769731
12.8508496518
12.9998112536
13.1868304944
13.434260683
13.5501720855
13.6787096659
13.8489580256
14.0426165087
14.2509054551
14.3766980187
14.5120125758
14.6853771015
14.8765634407
15.0586491447
15.2026544142
15.3532040445
15.5244474026
15.6964186729
15.8510757638
16.0057404371
16.1712300494
16.3378706576
16.4956562177
16.6522123128
16.8144806046
16.9778459679
17.1363644662
17.2929430221
17.4508205874
17.6060737626
17.7522280906
17.8857686513
18.0038904474
18.0995667075
18.1654098515
18.1960844982
18.1936822331
18.169359276
18.134523722
18.0949033476
18.0526259598
18.0091991541
17.9659353975
17.9235961674
17.8824689201
17.8426053549
17.803935587
17.7663026037
17.7294997133
17.6933333653
17.6577356149
17.6229664867
17.5898970309
17.5601990649
17.536095606
17.5194676572
17.5105125988
17.5071202064
17.5028716154
17.4967643329
17.4440161601
11.6655036263
11.8438294135
11.9681824301
12.1190750366
12.3098884993
12.5670941376
12.6876415767
12.8185377569
12.9923210105
13.1902697132
13.4043001448
13.5338455713
13.6710306978
13.8464328998
14.038497236
14.2179216345
14.3563031561
14.4997829482
14.669785582
14.8521896388
15.0266618738
15.1814190693
15.336410671
15.5023867258
15.6692970415
15.8271812507
15.9831301754
16.1444656022
16.3069059545
16.4647613568
16.6209633274
16.7796221438
16.9386634328
17.0945111155
17.2477433848
17.3996782159
17.5476495204
17.686917976
17.813776064
17.9251269734
18.0157388835
18.0801073796
18.1148140965
18.121513662
18.1078571744
18.0824668967
18.0506893405
18.0151196758
17.9774671417
17.939093739
17.9008705242
17.8632192389
17.8262891781
17.7900688468
17.7544369262
17.719219575
17.6842953167
17.6497821224
17.6163073801
17.5852245573
17.5584696615
17.5378141433
17.523749206
17.5145571441
17.5066121467
17.4930402078
17.4737162804
17.4082526851
10.7419474821
10.927413175
11.0542714947
11.2077759366
11.4034213011
11.6719826409
11.7987550515
11.9325634766
12.1106886384
12.3143197776
12.5355213013
12.6701989485
12.810337067
12.9899794689
13.1869832036
13.3703242082
13.5119223259
13.6572381771
13.8286547301
14.0112952259
14.183701579
14.3349430864
14.4869424996
14.6542988169
14.8298779669
15.0003053115
15.1593183238
15.3161983325
15.4782863301
15.6413074029
15.7997335754
15.956165712
16.1148992314
16.2742447676
16.4310082451
16.5860660553
16.7416188143
16.8967436499
17.0492370159
17.1986803316
17.3452260376
17.486819256
17.6198435232
17.7408561965
17.846806153
17.9336606761
17.9973480686
18.0356041677
18.0497468152
18.0451740558
18.0284167944
18.0041990062
17.9752598959
17.9434250404
17.9100872537
17.8761877595
17.8422468598
17.8084934302
17.7749671941
17.7415874613
17.7082473248
17.6749855653
17.6422452225
17.6111127509
17.5832631263
17.5603554098
17.5430174378
17.530044518
17.5182713567
17.5035875839
17.4797049632
17.4475216432
17.3709369297
9.60489945731
9.800744383
9.92880118398
10.0729483186
10.2460118431
10.4539609817
10.7401321426
10.8753397186
11.0129456181
11.1971316519
11.4087623068
11.6389589512
11.7798718386
11.9235940564
12.1086154372
12.3121127197
12.5007449403
12.6468776981
12.7955707825
12.9710716471
13.1581151292
13.3342295125
13.4888777377
13.6431136366
13.8118560083
13.987773379
14.1572445337
14.3147573613
14.4712913082
14.6360692193
14.8060865953
14.9732596673
15.1337636389
15.2918064681
15.4518295255
15.612292696
15.7702214872
15.9263751075
16.0830760508
16.2397920647
16.3947691824
16.5480657246
16.700717586
16.8522367517
17.0011645479
17.146696731
17.2883369142
17.4243424476
17.5518366255
17.6677977327
17.7694138782
17.8534959357
17.9170206461
17.9584445803
17.9788203951
17.9820518749
17.9731212678
17.9560779649
17.9336000555
17.9075449054
17.8793115743
17.8498793198
17.8198358232
17.789471478
17.7588740982
17.7280237112
17.6969445157
17.6659472223
17.6358867969
17.6081940067
17.5844096485
17.5652796031
17.5499427638
17.5358351216
17.5192439766
17.4964508611
17.4622545018
17.418279672
17.3323304574
8.42026998563
8.6264154091
8.75924638162
8.90726912008
9.08631409883
9.30287062829
9.60342196387
9.74302541024
9.87723537941
10.0459918276
10.2492401496
10.4721727013
10.7115075973
10.8574417219
11.0048376934
11.1969044213
11.4088638487
11.6039594621
11.7551361719
11.9079197212
12.0886754177
12.281549397
12.4627757521
12.6223265253
12.7806803625
12.9535683203
13.1336143784
13.3068250701
13.467804837
13.6268399614
13.7931954557
13.9639561936
14.1312418583
14.291874266
14.4512227257
14.6146577178
14.7810779913
14.9458734679
15.1065686828
15.2649467131
15.4235472583
15.5820216569
15.7388459011
15.8941191544
16.0490162447
16.2034209239
16.3563524693
16.5075717164
16.6574468069
16.8056054529
16.9509845581
17.092666727
17.2298370706
17.3609341178
17.4836006982
17.595244295
17.6933759848
17.7754292658
17.8391350554
17.8834135781
17.9091080266
17.9191037166
17.9172386336
17.9069268874
17.8906699227
17.8702882452
17.8471615787
17.8222816129
17.7962780389
17.7694893021
17.7420583348
17.7140668527
17.6857514695
17.6577682304
17.6313083973
17.607783774
17.58804366
17.5715593401
17.5561971651
17.538797837
17.5159182951
17.4846473065
17.44090037
17.3865681027
17.2929973594
6.98657576411
7.20677409653
7.34587528362
7.49509204155
7.66438620472
7.85499470275
8.08438320501
8.40839506158
8.56004586808
8.69936837862
8.87508196947
9.08773334372
9.32070699392
9.56773728748
9.71508920988
9.85648391722
10.0388552828
10.2529716923
10.4752686916
10.6758858284
10.8313432097
10.9887593397
11.1760930699
11.3762226547
11.5636327755
11.7288322754
11.892266482
12.0704709474
12.2559866082
12.434371718
12.6004300304
12.7639542056
12.9344767986
13.1092171629
13.2802641821
13.4444218362
13.6065893366
13.7720518714
13.93988361
14.1058259249
14.2679361611
14.4287155924
14.5911911112
14.7550754728
14.9178637428
15.0779576552
15.2360204737
15.3934533942
15.5503133036
15.7058403491
15.8599305122
16.0131317803
16.1654234754
16.3162242393
16.4652107923
16.6123899567
16.757385479
16.8993474425
17.0373570661
17.1704685719
17.2972573218
17.4157455696
17.5237299707
17.6190566331
17.6996413985
17.7637542184
17.8106223454
17.8409219494
17.8568289933
17.8613318137
17.857285567
17.8469608584
17.8320933228
17.8140208318
17.7937282902
17.771869382
17.7488261806
17.724817593
17.7000797685
17.6751162146
17.6508817982
17.6286304388
17.6092907865
17.5926627084
17.5770455228
17.5596544348
17.5374841137
17.5077857545
17.4685220504
17.4163441326
17.3531165647
17.2535702005
5.47901448152
5.71303432925
5.85896324592
6.01239218797
6.18692061488
6.3856844588
6.62675450271
6.97210545207
7.13377211703
7.27582286782
7.44822734833
7.64397887867
7.86908311971
8.11568264707
8.37586403011
8.53085384059
8.67616762516
8.86646501181
9.09106043214
9.32259486657
9.52729322238
9.68260593157
9.83717700567
10.0228016243
10.2313666327
10.4420589646
10.6352594101
10.8054594606
10.9742288693
11.1584599816
11.3502990339
11.5346435002
11.7064665234
11.8753631083
12.0510925714
12.2310227301
12.4071975368
12.5764586952
12.7433449536
12.9131244252
13.0850164085
13.2548467843
13.4206344419
13.5845921589
13.7496334959
13.9156481916
14.0804816571
14.2429623993
14.4041963503
14.5658514681
14.7279147111
14.8890476085
15.0482280609
15.2056241589
15.3619771545
15.5174211337
15.6715814786
15.8243185176
15.9758516854
16.1261441621
16.2748127805
16.4215247219
16.5660936885
16.7081145944
16.8468519629
16.9814302969
17.1108746453
17.2338831049
17.3487720008
17.4536713405
17.546743868
17.6262831279
17.6909495605
17.7401783198
17.7745126979
17.7956243991
17.8058663718
17.8076198757
17.8029097509
17.7933579313
17.7802440131
17.7645333264
17.7468948262
17.7277605657
17.7074547558
17.6864032344
17.6653478543
17.6453462025
17.6273466906
17.6114592322
17.5964369735
17.5798768659
17.5590167112
17.5314399232
17.4951599509
17.4488195949
17.3894310605
17.3187693191
17.2146632391
3.90312663387
4.1422871163
4.29103443762
4.44697065651
4.62534573761
4.8313238632
5.08504212006
5.4557571925
5.6324063057
5.77917253283
5.95812121785
6.16307839837
6.40030932086
6.66099301575
6.93356582719
7.09456348519
7.23818098077
7.4233034881
7.64007531024
7.87826572628
8.12060365469
8.33333842803
8.49456791864
8.65433452311
8.84758268553
9.06496720387
9.28294630287
9.4801366239
9.65204561229
9.82199858079
10.0095799414
10.211621287
10.4142539674
10.6053266645
10.7829011583
10.9575167854
11.1390323525
11.3248031346
11.5067756886
11.6818224944
11.854277877
12.0293691697
12.2064646622
12.3814809271
12.5524329109
12.7212948585
12.8908610339
13.0611242686
13.230033691
13.3964042379
13.5611848549
13.725946892
13.8908290124
14.0547847927
14.2171220795
14.3782946265
14.539189909
14.6998553213
14.8595782314
15.0177114171
15.1742278279
15.3294920034
15.4836087738
15.6363849616
15.7876907328
15.9375699563
16.0859470862
16.2325290578
16.3769939873
16.5190560941
16.6582855826
16.7940169317
16.9254300714
17.0515756265
17.1712717775
17.283068118
17.3853775739
17.4766409019
17.555456112
17.6207691863
17.6721584038
17.7100627176
17.7357877687
17.7512081478
17.7583117362
17.7588857956
17.7544253613
17.746142571
17.7349774328
17.7216150202
17.706551204
17.6902357686
17.6732656651
17.6564853639
17.6407744647
17.626477936
17.6128127785
17.5978045435
17.5789269919
17.5538909078
17.5209711496
17.4788529188
17.4264411013
17.3610033006
17.2842904863
17.1768056306
2.02570175708
2.26841202895
2.42108969632
2.58230921033
2.76401554536
2.95577532946
3.1721243673
3.44518218427
3.85107542968
4.04439559558
4.19457346584
4.38116486316
4.59707289729
4.84846328405
5.12693654615
5.4159618693
5.58695739337
5.73381239589
5.92746896376
6.15738740714
6.41013277687
6.66529598272
6.88511665228
7.04872046615
7.20799641232
7.40071154612
7.62049328241
7.85261975142
8.08023326878
8.28462329527
8.46278280153
8.63889158382
8.83350291147
9.04288807723
9.25181572615
9.44749352337
9.62867954557
9.80726776436
9.99479491564
10.1907281038
10.3870177895
10.5764650678
10.7579109686
10.9364559081
11.1174327555
11.3002932988
11.4810717608
11.6578114128
11.832340269
12.0073317847
12.1828757774
12.3570303024
12.52861063
12.6984226999
12.8679073275
13.037259902
13.2055192591
13.3720012833
13.537083674
13.7015924939
13.8656951509
14.0289036243
14.1908205468
14.3516137493
14.5117349728
14.6712258085
14.829697504
14.9867390794
15.1422575417
15.2964046885
15.4492344026
15.6006287465
15.7504704923
15.8987105945
16.0452364977
16.1897950007
16.3320754532
16.4717447863
16.6083624282
16.7413098092
16.8698247972
16.9930128509
17.1098048598
17.2189452579
17.3190822312
17.4088974058
17.4872315929
17.5532449053
17.6066162724
17.647703066
17.677540711
17.6976408522
17.7096692385
17.7151956718
17.7155871102
17.7119859263
17.705308273
17.6962628068
17.6854206141
17.6733454602
17.6607144699
17.6482670228
17.6364519751
17.6248889795
17.612084325
17.5958034729
17.5738477868
17.5445679402
17.5068699167
17.4597423243
17.402200313
17.3318763568
17.2503251179
17.1404251212
-0.216057545445
0.0361683212685
0.191068514689
0.361602184813
0.557359314349
0.760654870948
0.967824263641
1.20481797029
1.50673252024
1.95169909467
2.15824302433
2.30211993114
2.49220426001
2.70931550408
2.94342257575
3.21619959386
3.52126962594
3.82600884983
3.9972298531
4.14025616463
4.34327097708
4.59146074558
4.86453534449
5.13689025432
5.36555359923
5.53292697213
5.69641434141
5.89883612351
6.13231714866
6.37816910563
6.61636006292
6.82684549936
7.00821601406
7.18692635093
7.38540562687
7.60245843428
7.82672795301
8.04547967842
8.24870697086
8.43668389936
8.62189875645
8.81611776654
9.01862073987
9.22091562028
9.41570953931
9.60232541642
9.78667878773
9.97500052189
10.167584927
10.3602051184
10.5487600867
10.7323176403
10.9132378362
11.094311356
11.2757375187
11.4557320653
11.6331611754
11.8087452652
11.983809746
12.15860271
12.3322458977
12.5040607346
12.6743418351
12.8438090569
13.0126574096
13.1804583137
13.3468337467
13.5119228454
13.676151223
13.8396536872
14.0022104843
14.163597895
14.3238627758
14.4832198473
14.6416879104
14.7990429555
14.9550171326
15.1095024423
15.2625349459
15.4141206932
15.5641686143
15.7125660112
15.859214928
16.003975339
16.1466086205
16.2868135039
16.4242390567
16.5584437996
16.6888490944
16.8147485305
16.935313903
17.0495842311
17.1564656544
17.2548037296
17.3434821113
17.4215394821
17.4882973661
17.543507107
17.5874621769
17.6209962006
17.6453431686
17.6619076252
17.6720675208
17.6770689547
17.6779882911
17.675724382
17.6710175616
17.6645097154
17.6568229033
17.6485691725
17.6401778393
17.631525113
17.6215742211
17.6084603384
17.590114459
17.5649027648
17.5317658826
17.4899462614
17.4385979113
17.3769115646
17.302743934
17.2173820847
17.105848489
-2.37997687046
-2.13626673624
-1.98398854958
-1.803147614
-1.5981945563
-1.38535230486
-1.13630407961
-0.806029892251
-0.313402440269
-0.0731271745265
0.0788234669961
0.277495587792
0.501392711313
0.730957110091
0.977808152386
1.27534929232
1.61246804091
1.94113113962
2.11160220313
2.24375181331
2.44478999412
2.69051986411
2.95920407098
3.25091619509
3.54336648069
3.78382615904
3.95092135083
4.1143130079
4.32606207412
4.57509651117
4.83794106855
5.09075356632
5.31049929084
5.49688668078
5.68130656423
5.88890328846
6.11746686335
6.35325439172
6.58162479358
6.79165381238
6.98430738333
7.17417924942
7.37480924662
7.58698443593
7.80356564797
8.01612287249
8.21896667834
8.41252897204
8.60347654274
8.79841278765
8.99758614333
9.19649962002
9.39097623704
9.58042894528
9.76785751432
9.95668531417
10.1473851776
10.3377734764
10.5254808919
10.709785408
10.891813038
11.0730797982
11.2539098696
11.4334853016
11.6111568407
11.7872174227
11.9623501474
12.1367717116
12.3100714659
12.4818616686
12.6522512764
12.8216168319
12.9901051466
13.1575185061
13.3236462992
13.4885404355
13.6524278976
13.8154025971
13.9773592872
14.1381654321
14.2978223665
14.4564269762
14.6139762408
14.7703230275
14.9252801718
15.0787413601
15.2306845454
15.3810809497
15.5298422687
15.6768546541
15.8219949991
15.965103531
16.105947041
16.244230345
16.3795993965
16.5116208971
16.6397482861
16.763326329
16.8815929688
16.9936812635
17.0986312967
17.1954463365
17.2831755607
17.3610119662
17.4284009964
17.4851493701
17.5315066422
17.5681629858
17.5961486635
17.6166662591
17.6309354572
17.6400977438
17.6451743349
17.6470564148
17.646519213
17.6442490435
17.6408382166
17.636684118
17.631770011
17.6253871037
17.6160387795
17.6018340576
17.5811375298
17.5528755236
17.5163619199
17.4710754523
17.4163323069
17.3513770219
17.2742246323
17.185872561
17.0732978491
-4.33787158094
-4.08938776017
-3.93177818361
-3.73679988287
-3.50923249815
-3.24660909949
-2.91326098057
-2.4228583069
-2.23834001644
-2.07932504237
-1.86633441257
-1.62635188417
-1.36299376856
-1.03967910808
-0.668171355512
-0.297846829498
-0.108465103511
0.0188281214499
0.219651015311
0.46499860399
0.725720435145
1.00568199279
1.31553395193
1.62887279025
1.88340222106
2.05313949964
2.21380074656
2.42608672176
2.67734701045
2.94700355501
3.22485359737
3.49193831321
3.72210388218
3.91361702574
4.10303594929
4.32002629991
4.56153015793
4.81112199704
5.05195820235
5.27171564295
5.47176548799
5.66914762228
5.87891912844
6.10162572402
6.32876448433
6.5507101909
6.76120763292
6.96111305625
7.15849272857
7.36133103272
7.57081368561
7.78281056362
7.99201489382
8.19496045871
8.39181001774
8.5861885115
8.78190055839
8.97947117287
9.17656442579
9.37076071185
9.56158452053
9.75061711701
9.93980469802
10.1295667316
10.318737098
10.5058940885
10.6904998492
10.8731024092
11.0545561124
11.2351437021
11.4144881786
11.5922221206
11.7684727405
11.9436117901
12.1177993588
12.2908379182
12.462504723
12.6328394624
12.8020474224
12.9702303095
13.1372944249
13.3031195202
13.4677245993
13.6312346574
13.7937112202
13.9550988586
14.1153140038
14.274339512
14.4322112661
14.5889096506
14.744325959
14.8983176168
15.0507837236
15.2016720262
15.3509287268
15.4984619855
15.6441535563
15.7878656259
15.9294263748
16.0686029784
16.2051057076
16.3385844181
16.4686165944
16.594685984
16.7161823693
16.8324043932
16.9425686847
17.0458242607
17.1413038037
17.2281898271
17.3058008143
17.3736787476
17.4316746439
17.4800088636
17.5192685695
17.550333564
17.5742507373
17.5921119849
17.6049717134
17.6138078519
17.6195116795
17.6228888018
17.6246325751
17.6252216436
17.6247360157
17.6226597355
17.6177684189
17.6083254421
17.5926576707
17.5696454043
17.5386697639
17.4993218693
17.4512567931
17.3938608718
17.3263811027
17.2469670295
17.1563197654
17.0432378226
-6.43690777424
-6.17440618476