/*--------------------------------*- C++ -*----------------------------------*\
| =========                 |                                                 |
| \\      /  F ield         | OpenFOAM: The Open Source CFD Toolbox           |
|  \\    /   O peration     | Version:  2.3.1                                 |
|   \\  /    A nd           | Web:      www.OpenFOAM.org                      |
|    \\/     M anipulation  |                                                 |
\*---------------------------------------------------------------------------*/
FoamFile
{
    version     2.0;
    format      ascii;
    class       surfaceScalarField;
    location    "400";
    object      phi;
}
// * * * * * * * * * * * * * * * * * * * * * * * * * * * * * * * * * * * * * //

dimensions      [0 3 -1 0 0 0 0];

internalField   nonuniform List<scalar> 
19742
(
3.08874033548e-06
4.48996828578e-08
3.01653137904e-06
7.22089639013e-08
2.95701192759e-06
5.9519458316e-08
2.89828577487e-06
5.87261598022e-08
2.84327489387e-06
5.50108877129e-08
2.79348283127e-06
4.97920700978e-08
2.74905553426e-06
4.44273050911e-08
2.70986542574e-06
3.9190116176e-08
2.67580266694e-06
3.40627658474e-08
2.64683301718e-06
2.89696563037e-08
2.62304436381e-06
2.37886595091e-08
2.60472045993e-06
1.83239095607e-08
2.59247276527e-06
1.22476999073e-08
2.58803515573e-06
4.43761442639e-09
2.59541655982e-06
-7.38139953986e-09
2.62418408112e-06
-2.87675170642e-08
2.70543753632e-06
-8.12534513563e-08
-2.39481165138e-07
2.94491870571e-06
3.46925578063e-06
3.1854168512e-08
3.46054374829e-06
8.09210023042e-08
3.44898532092e-06
7.10778916146e-08
3.43820026904e-06
6.95112177945e-08
3.42719083253e-06
6.60203302191e-08
3.41647985889e-06
6.05030503079e-08
3.40652467064e-06
5.43825001895e-08
3.39774267141e-06
4.79721218588e-08
3.39059141952e-06
4.12140236929e-08
3.3855876584e-06
3.39734229267e-08
3.38336067125e-06
2.60156518501e-08
3.3847785532e-06
1.69060323975e-08
3.39137942545e-06
5.64683211004e-09
3.40544424597e-06
-9.62720199284e-09
3.43068804279e-06
-3.26251925319e-08
3.4744138317e-06
-7.249330242e-08
3.5467959713e-06
-1.53635587715e-07
-3.214680789e-07
3.62878288803e-06
3.81001702886e-06
3.38320783541e-08
3.82071921493e-06
7.02188207363e-08
3.82608253636e-06
6.57145746758e-08
3.83236450944e-06
6.32292495096e-08
3.83852321293e-06
5.98616314827e-08
3.84461370531e-06
5.44125632755e-08
3.85111265101e-06
4.78835601326e-08
3.85845529977e-06
4.06294785077e-08
3.86708420284e-06
3.25851256754e-08
3.87751801279e-06
2.35396176996e-08
3.89043286562e-06
1.3100803487e-08
3.90682856979e-06
5.10332389114e-10
3.92805522442e-06
-1.55798186589e-08
3.95613557069e-06
-3.77075446767e-08
3.99451004156e-06
-7.09996600555e-08
4.04781744385e-06
-1.25800701611e-07
4.11648514555e-06
-2.22303286542e-07
-3.86220633182e-07
4.18123770248e-06
4.20700330534e-06
3.12351769653e-08
4.21849152314e-06
5.87306068778e-08
4.22624202084e-06
5.79640810235e-08
4.23444367957e-06
5.5027595027e-08
4.24320687748e-06
5.1098437953e-08
4.25257167759e-06
4.50477678999e-08
4.26291169491e-06
3.75435476594e-08
4.27458831389e-06
2.89528641922e-08
4.2879775336e-06
1.91959103074e-08
4.30355289138e-06
7.96426404898e-09
4.3219540354e-06
-5.30033662756e-09
4.3440402542e-06
-2.15758827406e-08
4.3710332921e-06
-4.25728531657e-08
4.40462200617e-06
-7.12962555553e-08
4.44664146565e-06
-1.13019116563e-07
4.4974139284e-06
-1.76573161573e-07
4.55003307667e-06
-2.74922432213e-07
-4.17471378739e-07
4.58128382463e-06
4.6419316507e-06
2.65111079054e-08
4.65240294012e-06
4.82593208496e-08
4.66111843234e-06
4.92485922535e-08
4.67030063481e-06
4.58453961253e-08
4.68044849924e-06
4.09505772056e-08
4.69157615828e-06
3.39201128131e-08
4.7039409042e-06
2.51788058184e-08
4.71786868905e-06
1.50250832627e-08
4.73372941194e-06
3.33519113589e-09
4.75198153429e-06
-1.02878547614e-08
4.77321526138e-06
-2.65340603397e-08
4.79817612815e-06
-4.65367463335e-08
4.82774873541e-06
-7.21454574319e-08
4.8627517279e-06
-1.06299245226e-07
4.90322981896e-06
-1.53497204977e-07
4.94662283342e-06
-2.19966173539e-07
4.98406737668e-06
-3.12366973142e-07
-4.30903293544e-07
4.99749929377e-06
5.11977880115e-06
2.12814460372e-08
5.12979760981e-06
3.82405157374e-08
5.13945541026e-06
3.95907953886e-08
5.14967471598e-06
3.56260940471e-08
5.16097540776e-06
2.96498891467e-08
5.17341454901e-06
2.14809753699e-08
5.1872171076e-06
1.13762510125e-08
5.202701851e-06
-4.59656538914e-10
5.22022747483e-06
-1.41904293217e-08
5.24021000392e-06
-3.02703806374e-08
5.26312634256e-06
-4.94503959132e-08
5.28948054665e-06
-7.28909475403e-08
5.31966644407e-06
-1.02331352135e-07
5.35362334709e-06
-1.40256145692e-07
5.39007408144e-06
-1.89947936892e-07
5.42515644796e-06
-2.55048537781e-07
5.45065466238e-06
-3.37865185329e-07
-4.34438227373e-07
5.4541895982e-06
5.64615716914e-06
1.61345726932e-08
5.65592313223e-06
2.84745561724e-08
5.66629622417e-06
2.92177069555e-08
5.67741614172e-06
2.45061800751e-08
5.68970467629e-06
1.7361358195e-08
5.70325122051e-06
7.93443486304e-09
5.71824836476e-06
-3.62088958121e-09
5.73497893037e-06
-1.71902186727e-08
5.75374963152e-06
-3.29611272012e-08
5.77487838377e-06
-5.13991297562e-08
5.79866527076e-06
-7.32372799201e-08
5.82530722115e-06
-9.95328950882e-08
5.85470740987e-06
-1.31731538181e-07
5.88611457487e-06
-1.71663308132e-07
5.91751791702e-06
-2.2135127665e-07
5.94485810906e-06
-2.82388727494e-07
5.96151822802e-06
-3.5452530213e-07
-4.32538506465e-07
5.95961850929e-06
4.40979542062e-06
1.24940116297e-08
4.41655662196e-06
2.17133586753e-08
4.42430881319e-06
2.1465519566e-08
4.43276411497e-06
1.60508821551e-08
4.44212458805e-06
8.00088894738e-09
4.4524756935e-06
-2.41666677383e-09
4.46393230653e-06
-1.50774989604e-08
4.4766631523e-06
-2.99210609875e-08
4.49085143346e-06
-4.71494051652e-08
4.50666535006e-06
-6.72130433093e-08
4.52421821014e-06
-9.0790137151e-08
4.54348794618e-06
-1.18802628428e-07
4.5641704969e-06
-1.52414086375e-07
4.58544647329e-06
-1.92939282158e-07
4.60566615498e-06
-2.41570956085e-07
4.62206337759e-06
-2.98785947996e-07
4.63079713914e-06
-3.63259061622e-07
-4.29864341107e-07
4.62812297579e-06
5.14375749052e-06
8.66716498356e-09
5.1508911146e-06
1.4579738304e-08
5.15938381419e-06
1.29728237242e-08
5.16883019284e-06
6.60450725377e-09
5.17933836375e-06
-2.50727819805e-09
5.19095793312e-06
-1.40362324588e-08
5.2037680972e-06
-2.78876594724e-08
5.21789135515e-06
-4.40443156171e-08
5.23344601049e-06
-6.27040573672e-08
5.25050292631e-06
-8.4269956203e-08
5.2690297105e-06
-1.09316918555e-07
5.2887983086e-06
-1.38571223916e-07
5.30924268029e-06
-1.72858455594e-07
5.32926905087e-06
-2.12965650404e-07
5.34705842451e-06
-2.59360327526e-07
5.35998756208e-06
-3.11715083445e-07
5.36491336939e-06
-3.68184866889e-07
-4.242026932e-07
5.35925172352e-06
5.99985294625e-06
4.6998857053e-09
6.00727021903e-06
7.1624695989e-09
6.0164006546e-06
3.84239222491e-09
6.02674035107e-06
-3.73518516804e-09
6.0382954338e-06
-1.40623569513e-08
6.05106009172e-06
-2.68008864874e-08
6.06505690351e-06
-4.18844676101e-08
6.08033765768e-06
-5.93250663413e-08
6.09692860632e-06
-7.92950028138e-08
6.11477683173e-06
-1.02118178586e-07
6.13368615579e-06
-1.28226239807e-07
6.15322620113e-06
-1.58111266564e-07
6.17261359818e-06
-1.92245850145e-07
6.19058476405e-06
-2.30936813838e-07
6.20531430137e-06
-2.74089862592e-07
6.21448704244e-06
-3.20887822335e-07
6.21568707037e-06
-3.69384892649e-07
-4.1579523443e-07
6.20727961367e-06
6.99842133344e-06
6.47454253681e-10
7.00600537153e-06
-4.21564364392e-10
7.01563021916e-06
-5.78245126293e-09
7.02669915061e-06
-1.48041124975e-08
7.03910317397e-06
-2.64663762287e-08
7.05276860872e-06
-4.0466317309e-08
7.06764175429e-06
-5.6757609419e-08
7.083680059e-06
-7.53633675424e-08
7.10079477207e-06
-9.64097125816e-08
7.11879178894e-06
-1.20115192378e-07
7.13730804716e-06
-1.46742495066e-07
7.15573517312e-06
-1.765383898e-07
7.17313846754e-06
-2.09649141818e-07
7.18819841646e-06
-2.45996760304e-07
7.19922523175e-06
-2.8511667542e-07
7.20431877938e-06
-3.25981367717e-07
7.2017551881e-06
-3.66821299071e-07
-4.0468236636e-07
7.19064232217e-06
8.16318419385e-06
-3.41802216624e-09
8.17079867109e-06
-8.03603727229e-09
8.18070896853e-06
-1.56927444165e-08
8.19225011032e-06
-2.63452500203e-08
8.20518967022e-06
-3.94059319518e-08
8.21936774274e-06
-5.46443857625e-08
8.23463601628e-06
-7.20258791133e-08
8.25083821572e-06
-9.15655633787e-08
8.26775568285e-06
-1.13327176313e-07
8.28504997687e-06
-1.37409483163e-07
8.30220887261e-06
-1.63901387786e-07
8.31849482596e-06
-1.92824340139e-07
8.33290784876e-06
-2.24062161835e-07
8.3441880894e-06
-2.57276998188e-07
8.35089316818e-06
-2.91821751719e-07
8.35158472042e-06
-3.26672917446e-07
8.345145491e-06
-3.60382067373e-07
-3.90758287095e-07
8.33122141407e-06
9.52181151467e-06
-7.40279395114e-09
9.52928003026e-06
-1.55045484043e-08
9.53918233948e-06
-2.55950491772e-08
9.55081852955e-06
-3.79814356738e-08
9.56383279538e-06
-5.24201934271e-08
9.57796145688e-06
-6.87730430389e-08
9.59294758828e-06
-8.7012006557e-08
9.60851112198e-06
-1.071290933e-07
9.6243024102e-06
-1.2911846102e-07
9.6398548897e-06
-1.52961959297e-07
9.65454818609e-06
-1.78594680967e-07
9.66758567282e-06
-2.05861823714e-07
9.67799703643e-06
-2.34473522452e-07
9.68468249544e-06
-2.63962454302e-07
9.68651503969e-06
-2.93654293295e-07
9.68250689404e-06
-3.22664769216e-07
9.67203129652e-06
-3.49906467319e-07
-3.73821553174e-07
9.65509456485e-06
1.11065744157e-05
-1.11814335957e-08
1.11136590773e-05
-2.25892053737e-08
1.11231583737e-05
-3.50943409173e-08
1.11343644371e-05
-4.91874945305e-08
1.11468118171e-05
-6.48675688274e-08
1.11601256651e-05
-8.20868867428e-08
1.11739371168e-05
-1.00823454107e-07
1.11878483339e-05
-1.21040306432e-07
1.12013977444e-05
-1.42667867825e-07
1.12140290101e-05
-1.65593221556e-07
1.12250745405e-05
-1.89640207865e-07
1.12337588554e-05
-2.14546135454e-07
1.1239227769e-05
-2.39942432725e-07
1.12406097839e-05
-2.65344466294e-07
1.12371116648e-05
-2.90156171314e-07
1.12281403094e-05
-3.13693411118e-07
1.12134352776e-05
-3.35201432865e-07
-3.5361023938e-07
1.11932239662e-05
1.29551164779e-05
-1.45905005073e-08
1.29615001167e-05
-2.8972839455e-08
1.29700864673e-05
-4.36806867437e-08
1.29801772041e-05
-5.92782265618e-08
1.29912228345e-05
-7.59131945401e-08
1.30027477242e-05
-9.36117719287e-08
1.30142853462e-05
-1.12361071772e-07
1.30253470737e-05
-1.32102029899e-07
1.30354008842e-05
-1.52721674387e-07
1.30438580569e-05
-1.74050390581e-07
1.30500746086e-05
-1.95856755988e-07
1.30533709767e-05
-2.17842500102e-07
1.30530710752e-05
-2.39642527946e-07
1.30485597358e-05
-2.60833123705e-07
1.30393534836e-05
-2.80949916058e-07
1.30251741506e-05
-2.99514075157e-07
1.30060146309e-05
-3.16041910397e-07
-3.29819821087e-07
1.29822242153e-05
1.51113545297e-05
-1.74273781659e-08
1.51166409365e-05
-3.42592414166e-08
1.51236991697e-05
-5.07389149422e-08
1.51318524016e-05
-6.74314536379e-08
1.51405010097e-05
-8.45617977039e-08
1.51490994596e-05
-1.02210217268e-07
1.51571191154e-05
-1.20380722953e-07
1.51640280332e-05
-1.39010943482e-07
1.51692824185e-05
-1.57976055554e-07
1.51723272765e-05
-1.77095244807e-07
1.51726085564e-05
-1.96138032125e-07
1.5169597533e-05
-2.14831473072e-07
1.51628255581e-05
-2.32870549483e-07
1.51519252046e-05
-2.49932766822e-07
1.51366718066e-05
-2.65696514812e-07
1.51170179174e-05
-2.79860182696e-07
1.50931170486e-05
-2.92141038602e-07
-3.02075912871e-07
1.50653731434e-05
1.76265277864e-05
-1.94533735174e-08
1.76302714955e-05
-3.80029449572e-08
1.76351344374e-05
-5.56018516471e-08
1.76404717733e-05
-7.27687841879e-08
1.76456714948e-05
-8.97615141914e-08
1.76501654268e-05
-1.06704144225e-07
1.76534167116e-05
-1.23632003094e-07
1.76549115406e-05
-1.40505767738e-07
1.76541595266e-05
-1.5722403733e-07
1.76507012285e-05
-1.73636942287e-07
1.76441222311e-05
-1.89559030811e-07
1.76340727877e-05
-2.04782025651e-07
1.76202904927e-05
-2.19088250708e-07
1.7602622363e-05
-2.32264633312e-07
1.75810422656e-05
-2.441164138e-07
1.75556601592e-05
-2.54478072613e-07
1.75267244778e-05
-2.63205353873e-07
-2.70006616714e-07
1.74946551851e-05
1.78271983174e-05
-2.04101343562e-08
1.78289258545e-05
-3.97304764842e-08
1.78309568324e-05
-5.76328239582e-08
1.78327527789e-05
-7.45647253965e-08
1.78337908399e-05
-9.07995698863e-08
1.78335946211e-05
-1.06507920441e-07
1.78317335382e-05
-1.21770915344e-07
1.78278197103e-05
-1.36591935307e-07
1.78215108374e-05
-1.50915159945e-07
1.78125168313e-05
-1.64642931965e-07
1.78006084257e-05
-1.7765062095e-07
1.77856268299e-05
-1.89800425912e-07
1.77674928666e-05
-2.00954283464e-07
1.77462135605e-05
-2.10985323371e-07
1.77218843765e-05
-2.19787225973e-07
1.76946862378e-05
-2.27279930303e-07
1.76648803083e-05
-2.3339942073e-07
-2.3795711433e-07
1.76328308092e-05
1.58815695163e-05
-2.060858043e-08
1.5881860294e-05
-4.00212485568e-08
1.58818995685e-05
-5.76720931623e-08
1.58812557844e-05
-7.39209360395e-08
1.58795227134e-05
-8.9066493795e-08
1.58763564523e-05
-1.03341654536e-07
1.58714667161e-05
-1.16881174513e-07
1.58646104132e-05
-1.29735627944e-07
1.58555934825e-05
-1.41898224944e-07
1.58442738089e-05
-1.53323254397e-07
1.58305635651e-05
-1.63940373138e-07
1.58144313193e-05
-1.73668176379e-07
1.57959031966e-05
-1.82426156849e-07
1.57750620355e-05
-1.90144158722e-07
1.57520439328e-05
-1.9676911966e-07
1.57270322212e-05
-2.02268215287e-07
1.57002517187e-05
-2.06618914802e-07
-2.09691299394e-07
1.56719859068e-05
1.41485215209e-05
-2.04413955207e-08
1.41481424127e-05
-3.96421351015e-08
1.41472592411e-05
-5.67889163579e-08
1.41454643076e-05
-7.21259976275e-08
1.41424183284e-05
-8.60205096103e-08
1.41378748624e-05
-9.87981839012e-08
1.41316434565e-05
-1.10649764103e-07
1.41235785262e-05
-1.21670693217e-07
1.41135813436e-05
-1.31901038412e-07
1.4101599329e-05
-1.41341235711e-07
1.4087623899e-05
-1.49964939531e-07
1.40716888021e-05
-1.57733075571e-07
1.40538680896e-05
-1.646054409e-07
1.40342728488e-05
-1.70548914195e-07
1.40130464969e-05
-1.75542764523e-07
1.39903590041e-05
-1.79580718992e-07
1.39664023084e-05
-1.82662216066e-07
-1.84693604618e-07
1.39414046167e-05
1.26047237492e-05
-2.01204252342e-08
1.26041544614e-05
-3.90728424902e-08
1.26030199413e-05
-5.56543914972e-08
1.26008527223e-05
-6.9958774037e-08
1.25973573496e-05
-8.25251321599e-08
1.25923670485e-05
-9.38078784138e-08
1.25857611183e-05
-1.04043829532e-07
1.25774590372e-05
-1.1336860811e-07
1.25674246892e-05
-1.2186668642e-07
1.25556608952e-05
-1.29577438011e-07
1.25422040935e-05
-1.36508134082e-07
1.25271213537e-05
-1.42650332322e-07
1.25105075812e-05
-1.47991664757e-07
1.24924819477e-05
-1.52523277307e-07
1.24731837132e-05
-1.56244526649e-07
1.24527677126e-05
-1.59164715181e-07
1.24314014974e-05
-1.61295997508e-07
-1.62568696227e-07
1.24092765918e-05
1.12294127876e-05
-1.97183109158e-08
1.12289666245e-05
-3.86266749166e-08
1.12280015683e-05
-5.46893309852e-08
1.1225904418e-05
-6.78616194573e-08
1.12224415115e-05
-7.90622213406e-08
1.12175211197e-05
-8.88874824729e-08
1.12110682398e-05
-9.75909456689e-08
1.12030464679e-05
-1.05346832347e-07
1.11934628983e-05
-1.12283113243e-07
1.11823557307e-05
-1.18470266844e-07
1.11697872386e-05
-1.23939638474e-07
1.11558409676e-05
-1.28704057959e-07
1.11406189814e-05
-1.32769675138e-07
1.11242385684e-05
-1.3614286104e-07
1.11068287668e-05
-1.38834721771e-07
1.10885270819e-05
-1.40863027136e-07
1.10694781532e-05
-1.42247065632e-07
-1.42933407438e-07
1.10498428671e-05
1.00040868286e-05
-1.91800677981e-08
1.00040012196e-05
-3.8541061886e-08
1.0003472705e-05
-5.41608123523e-08
1.00016745278e-05
-6.60634383174e-08
9.99849718162e-06
-7.58848711369e-08
9.99391815043e-06
-8.43084474889e-08
9.98788985139e-06
-9.15626430227e-08
9.98041015733e-06
-9.78671348385e-08
9.97151783073e-06
-1.03390783291e-07
9.96127291394e-06
-1.08225346721e-07
9.94975110818e-06
-1.12417829502e-07
9.93704237427e-06
-1.15995320829e-07
9.92324861461e-06
-1.18975912337e-07
9.90848094655e-06
-1.21375189747e-07
9.89285743157e-06
-1.23211203742e-07
9.87650184238e-06
-1.2450743478e-07
9.85954628228e-06
-1.25291502717e-07
-1.25527963508e-07
9.8421408412e-06
8.91225550902e-06
-1.83299545499e-08
8.91272836443e-06
-3.90139134314e-08
8.91274283221e-06
-5.41752764003e-08
8.91130630652e-06
-6.4626908824e-08
8.90851668067e-06
-7.30952415011e-08
8.904384429e-06
-8.01761922779e-08
8.89887601545e-06
-8.60542262665e-08
8.89202426293e-06
-9.10153790822e-08
8.88389452047e-06
-9.52610377773e-08
8.87456065676e-06
-9.88914799423e-08
8.86410415571e-06
-1.01961325462e-07
8.85261482924e-06
-1.04505991471e-07
8.84018907591e-06
-1.06550155961e-07
8.8269274506e-06
-1.08113561452e-07
8.81293230738e-06
-1.09216057443e-07
8.79830620246e-06
-1.09881326907e-07
8.78315433263e-06
-1.10139629846e-07
-1.09964911219e-07
8.76759128291e-06
7.93929360848e-06
-1.69506976984e-08
7.9406085781e-06
-4.03288793619e-08
7.94107563529e-06
-5.46423299384e-08
7.93992418809e-06
-6.3475458366e-08
7.93754013737e-06
-7.07111869576e-08
7.93388577941e-06
-7.6521830804e-08
7.92892140166e-06
-8.10898452123e-08
7.92270641223e-06
-8.4800386634e-08
7.91532248059e-06
-8.78771032495e-08
7.9068507776e-06
-9.04197739963e-08
7.89737550108e-06
-9.2486046134e-08
7.88698520609e-06
-9.41156935842e-08
7.87577131602e-06
-9.5336262993e-08
7.86382613929e-06
-9.61683817808e-08
7.85124117363e-06
-9.6631088925e-08
7.83810720275e-06
-9.6747353004e-08
7.82452445231e-06
-9.65568764724e-08
-9.60716073856e-08
7.81063115135e-06
7.07140283331e-06
-1.40193391958e-08
7.07421891782e-06
-4.31449601045e-08
7.07491448369e-06
-5.53378921971e-08
7.07384771182e-06
-6.24086830357e-08
7.07173180053e-06
-6.85952720762e-08
7.06843231822e-06
-7.32223450478e-08
7.06391850418e-06
-7.65760281466e-08
7.05826476593e-06
-7.91466451575e-08
7.05154769614e-06
-8.11600304412e-08
7.0438403239e-06
-8.27123987896e-08
7.03522029754e-06
-8.38660169196e-08
7.02577002154e-06
-8.46654148645e-08
7.01557416465e-06
-8.51404030738e-08
7.00471666405e-06
-8.53108783046e-08
6.99327635929e-06
-8.51907812098e-08
6.98132036328e-06
-8.47913540109e-08
6.96889698205e-06
-8.41334922255e-08
-8.32034812648e-08
6.95602885884e-06
6.29576365348e-06
-7.26847296217e-09
6.30142396468e-06
-4.8805267709e-08
6.30260742709e-06
-5.65213512401e-08
6.30191855953e-06
-6.1719812669e-08
6.30004183116e-06
-6.67185401006e-08
6.29678181877e-06
-6.99623292167e-08
6.29225791495e-06
-7.20521211201e-08
6.28663013501e-06
-7.35188619963e-08
6.28000341504e-06
-7.45333076341e-08
6.27245974862e-06
-7.51687293824e-08
6.26407769851e-06
-7.54839640337e-08
6.2549361345e-06
-7.55238480368e-08
6.24511432348e-06
-7.5318589014e-08
6.23469064631e-06
-7.48871983743e-08
6.2237392602e-06
-7.4239392406e-08
6.21232398599e-06
-7.33760768666e-08
6.20049746058e-06
-7.2306963866e-08
-7.10230345656e-08
6.18831701671e-06
5.59994513198e-06
7.68802188077e-09
5.60724448402e-06
-5.61046147407e-08
5.60798386848e-06
-5.72607309646e-08
5.60807170751e-06
-6.18076482354e-08
5.60677732295e-06
-6.54241514825e-08
5.60360835169e-06
-6.67933540877e-08
5.59877091838e-06
-6.72146844283e-08
5.5924999371e-06
-6.72478767057e-08
5.58496851502e-06
-6.70018819329e-08
5.57632080441e-06
-6.65210153773e-08
5.56668528678e-06
-6.58484433619e-08
5.55617932322e-06
-6.50178815523e-08
5.54491260278e-06
-6.40518652013e-08
5.53298888147e-06
-6.29634739012e-08
5.52050430987e-06
-6.17548179343e-08
5.50753587576e-06
-6.04076397762e-08
5.49409924314e-06
-5.88703283316e-08
-5.6887419832e-08
5.4799636314e-06
5.00788841584e-06
2.10800506985e-09
5.00214202081e-06
-5.03582132583e-08
4.99069119018e-06
-4.58098944928e-08
4.9801181982e-06
-5.12346518364e-08
4.96851029534e-06
-5.3816243803e-08
4.95550925445e-06
-5.37923087017e-08
4.94111005298e-06
-5.2815478603e-08
4.92534657124e-06
-5.14843901563e-08
4.9083150145e-06
-4.99703208697e-08
4.89015323032e-06
-4.8359227233e-08
4.87101402325e-06
-4.67092327952e-08
4.85105252885e-06
-4.50563834977e-08
4.83042139374e-06
-4.34207260641e-08
4.80926911489e-06
-4.18111914125e-08
4.78774084053e-06
-4.0226540228e-08
4.7659814889e-06
-3.86482848235e-08
4.74412320068e-06
-3.70120367828e-08
-3.4955173459e-08
4.72219095751e-06
4.45865806361e-06
4.40829985092e-06
4.36248995686e-06
4.31125530554e-06
4.25743906226e-06
4.20364675409e-06
4.15083127613e-06
4.0993468866e-06
4.04937656634e-06
4.00101733969e-06
3.95430810752e-06
3.90925172479e-06
3.86583099947e-06
3.82401980878e-06
3.78379326931e-06
3.7451449853e-06
3.70813294937e-06
3.67317777675e-06
1.68280585452e-06
-1.68280639257e-06
2.08480301327e-06
-4.01997834067e-07
2.16379926531e-06
-7.89967867149e-08
2.18332358626e-06
-1.9524847501e-08
2.21156114868e-06
-2.82380671274e-08
2.23746356736e-06
-2.59029527453e-08
2.2578546419e-06
-2.0391584034e-08
2.27386297244e-06
-1.60088645218e-08
2.28673975796e-06
-1.28772875602e-08
2.29722470971e-06
-1.04854703975e-08
2.30584722659e-06
-8.62299329122e-09
2.31307094137e-06
-7.22419614915e-09
2.31930285714e-06
-6.23234203274e-09
2.32488647385e-06
-5.58403265196e-09
2.33010298217e-06
-5.21685386974e-09
2.33517123876e-06
-5.06857204277e-09
2.34024261254e-06
-5.07159950403e-09
2.34538960407e-06
-5.14716020832e-09
2.3505888885e-06
-5.19933749958e-09
2.35569726997e-06
-5.10834066489e-09
2.36042012563e-06
-4.72266506637e-09
2.36427345087e-06
-3.85299220683e-09
2.36655722369e-06
-2.28324811177e-09
2.36648076159e-06
7.71880858426e-11
2.36284272178e-06
3.63905142263e-09
2.35354728048e-06
9.29690197634e-09
2.33450008784e-06
1.90489776847e-08
2.2951841949e-06
3.93179181211e-08
1.10311346108e-07
2.18487457003e-06
1.87355550694e-06
-1.87355603264e-06
2.48608559921e-06
-6.12530513008e-07
3.13726573568e-06
-6.5118043115e-07
2.1910213506e-06
-7.36562398844e-07
2.24986368143e-06
-4.60840656253e-07
2.39116446969e-06
-2.20298061458e-07
2.48213724624e-06
-1.10498148224e-07
2.54110286996e-06
-8.72041862721e-08
2.58873089924e-06
-7.353151153e-08
2.62835737541e-06
-6.00185606764e-08
2.66180245949e-06
-4.94544811567e-08
2.69068761597e-06
-4.17629423493e-08
2.71610266907e-06
-3.59010469989e-08
2.73878089552e-06
-3.13017008781e-08
2.75928107529e-06
-2.77248707609e-08
2.77805276324e-06
-2.50044722219e-08
2.79545733795e-06
-2.29890474427e-08
2.81178104297e-06
-2.1540934346e-08
2.82724219223e-06
-2.05300735349e-08
2.84199210581e-06
-1.98217858911e-08
2.8561100912e-06
-1.92653671398e-08
2.86959371448e-06
-1.8683083602e-08
2.8823443993e-06
-1.78590609883e-08
2.89414950081e-06
-1.65276784871e-08
2.90466183085e-06
-1.43651024241e-08
2.91336924633e-06
-1.09902913116e-08
2.91941099044e-06
-5.9640056615e-09
2.92195234813e-06
1.09847464303e-09
2.91996791352e-06
1.12824461089e-08
2.91107349428e-06
2.79447988628e-08
2.88931068428e-06
6.1082187668e-08
1.41426613549e-07
2.85819670072e-06
1.99185665235e-06
-1.9918571858e-06
2.48511415213e-06
-4.93257922526e-07
2.88298379232e-06
-3.97870111599e-07
3.55141035807e-06
-6.68426870521e-07
2.55323185456e-06
-8.75377870218e-07
2.6521578096e-06
-7.11456792985e-07
2.67074807333e-06
-6.69771144883e-07
2.57301426597e-06
-6.38828873516e-07
2.59574860196e-06
-4.83575273327e-07
2.68324511429e-06
-3.07794893439e-07
2.76713599701e-06
-1.94389346379e-07
2.82768284782e-06
-1.4775136885e-07
2.87642192771e-06
-1.2227090747e-07
2.91818319756e-06
-1.01780155434e-07
2.9544947562e-06
-8.57663449518e-08
2.98654009791e-06
-7.38085907967e-08
3.01526893944e-06
-6.4630170741e-08
3.04134477232e-06
-5.73778088199e-08
3.06525245483e-06
-5.16327980088e-08
3.08737426673e-06
-4.71265117586e-08
3.10801822365e-06
-4.36331951341e-08
3.12742998149e-06
-4.09528547266e-08
3.14579905207e-06
-3.88992616112e-08
3.16326023424e-06
-3.72830438628e-08
3.17989106797e-06
-3.58962191453e-08
3.19570685938e-06
-3.44988342716e-08
3.21065551576e-06
-3.28075999599e-08
3.22461642837e-06
-3.04883931692e-08
3.23741068033e-06
-2.7159052933e-08
3.24883023142e-06
-2.24094381849e-08
3.25868570739e-06
-1.58189412982e-08
3.26666533399e-06
-6.8804525031e-09
3.27265635214e-06
5.29240415532e-09
3.27633507146e-06
2.426723966e-08
3.27683720051e-06
6.05812347199e-08
1.36068326531e-07
3.28219644547e-06
2.16617056901e-06
-2.16617067213e-06
2.71383120604e-06
-5.47660766969e-07
3.15420115542e-06
-4.40370208463e-07
3.87265165643e-06
-7.18450741997e-07
2.75523037763e-06
-8.74436235958e-07
2.9018197319e-06
-6.39847644027e-07
3.07010488183e-06
-5.66155591971e-07
3.07439644349e-06
-6.72718861768e-07
2.96197238734e-06
-7.62954054603e-07
2.96718325391e-06
-7.16667907608e-07
2.96506431688e-06
-6.67652284928e-07
2.93105149553e-06
-6.04816374015e-07
2.9412239828e-06
-4.93748060874e-07
2.99554479603e-06
-3.62116056815e-07
3.06098821623e-06
-2.59833100683e-07
3.11566868688e-06
-2.02432213482e-07
3.16098340018e-06
-1.67585966049e-07
3.20022364686e-06
-1.41020780957e-07
3.23457743551e-06
-1.20120478768e-07
3.26486081705e-06
-1.04092345383e-07
3.29188185806e-06
-9.16515461534e-08
3.31629221532e-06
-8.17885197601e-08
3.33858611129e-06
-7.39270033841e-08
3.3591538335e-06
-6.76945509231e-08
3.378311484e-06
-6.27911121767e-08
3.39631335505e-06
-5.89549846431e-08
3.41335862656e-06
-5.59447343136e-08
3.42959484899e-06
-5.35194396274e-08
3.44511975772e-06
-5.1421233589e-08
3.45998417234e-06
-4.93633005076e-08
3.47420120608e-06
-4.70246041467e-08
3.4877705216e-06
-4.40575933059e-08
3.50073033626e-06
-4.01186545651e-08
3.51324580206e-06
-3.49245731643e-08
3.5257111059e-06
-2.8283801364e-08
3.53872485101e-06
-1.98935803672e-08
3.5525216654e-06
-8.50358337608e-09
3.56695425708e-06
9.83565782488e-09
3.58211372805e-06
4.54227487259e-08
1.14334695119e-07
3.60384819093e-06
2.32382446998e-06
-2.32382472262e-06
2.92274980756e-06
-5.98925500928e-07
3.40579202944e-06
-4.83042353269e-07
4.18561087059e-06
-7.79818854305e-07
2.97369675437e-06
-9.54256626478e-07
3.12907122421e-06
-7.03035357754e-07
3.304609351e-06
-6.15908478404e-07
3.2969262917e-06
-7.10768011387e-07
3.19103836356e-06
-7.68548535381e-07
3.24409261666e-06
-6.92902152347e-07
3.33303727639e-06
-6.55100528397e-07
3.34898138151e-06
-6.88663059426e-07
3.30638662119e-06
-7.20359549598e-07
3.28983371791e-06
-7.00115186683e-07
3.27777813013e-06
-6.55597079514e-07
3.26353413983e-06
-5.90572531283e-07
3.27076077722e-06
-5.00974877865e-07
3.30561326104e-06
-3.96968704239e-07
3.35339985793e-06
-3.07619885667e-07
3.39816240424e-06
-2.47194925753e-07
3.43696320207e-06
-2.06386947705e-07
3.47112999538e-06
-1.75187730305e-07
3.50138751401e-06
-1.50378165619e-07
3.52819610688e-06
-1.30901074093e-07
3.55211201881e-06
-1.15567600102e-07
3.57366460033e-06
-1.03341206546e-07
3.59328609683e-06
-9.35486049353e-08
3.61132842617e-06
-8.57369447695e-08
3.6280841604e-06
-7.95469038526e-08
3.64379585992e-06
-7.46666975278e-08
3.65866086226e-06
-7.08097347007e-08
3.67283548256e-06
-6.76940087471e-08
3.68644075285e-06
-6.5026425998e-08
3.69957444012e-06
-6.24968520242e-08
3.71233730136e-06
-5.9787287865e-08
3.72488577356e-06
-5.66058179582e-08
3.73752146729e-06
-5.2754042109e-08
3.75080132489e-06
-4.8204044239e-08
3.76556530325e-06
-4.30473214248e-08
3.78264180754e-06
-3.69695149515e-08
3.80207904928e-06
-2.79401005984e-08
3.82247008581e-06
-1.055453993e-08
3.84292199133e-06
2.49716343658e-08
8.97045704449e-08
3.86755273926e-06
2.47167645521e-06
-2.4716765724e-06
3.11797701479e-06
-6.46300677532e-07
3.63915960056e-06
-5.21182775387e-07
4.47442371424e-06
-8.3526425899e-07
3.18133805864e-06
-1.0307392243e-06
3.34924938601e-06
-7.6683696862e-07
3.53952155848e-06
-6.73314580214e-07
3.53313469591e-06
-7.73432099791e-07
3.41642174322e-06
-8.37543691236e-07
3.46934195947e-06
-7.55955627628e-07
3.56076565111e-06
-7.07332314129e-07
3.57864177363e-06
-7.28644198795e-07
3.55378107246e-06
-7.43688060573e-07
3.57684141421e-06
-7.15962736088e-07
3.61813424527e-06
-6.96393532338e-07
3.63010681128e-06
-7.0063596286e-07
3.61305229787e-06
-7.03305154636e-07
3.59692349178e-06
-6.83986544474e-07
3.58285781267e-06
-6.41531380872e-07
3.57371004304e-06
-5.81424978768e-07
3.57794188957e-06
-5.05206950799e-07
3.60017249137e-06
-4.1919951122e-07
3.63363381451e-06
-3.41081448485e-07
3.6680261498e-06
-2.81587478731e-07
3.69944682494e-06
-2.37807870087e-07
3.72780314056e-06
-2.03544265286e-07
3.75331567938e-06
-1.75890947638e-07
3.77613237817e-06
-1.53717983856e-07
3.7965487277e-06
-1.35984177485e-07
3.81493204437e-06
-1.21724714888e-07
3.83162455766e-06
-1.10241318123e-07
3.84692497342e-06
-1.01037520669e-07
3.86109417829e-06
-9.37162664474e-08
3.87435854507e-06
-8.79311784678e-08
3.88691198997e-06
-8.33632772424e-08
3.89892084303e-06
-7.97029102887e-08
3.91053482257e-06
-7.66404181999e-08
3.92191053864e-06
-7.38725234568e-08
3.93325746755e-06
-7.11341121449e-08
3.9449161043e-06
-6.82642837631e-08
3.957458134e-06
-6.52958171701e-08
3.97172615259e-06
-6.24717375746e-08
3.98859853977e-06
-5.99192882545e-08
4.0082751938e-06
-5.66456607244e-08
4.0294771273e-06
-4.91413777526e-08
4.0497689953e-06
-3.08456592246e-08
4.06802636315e-06
6.71497993344e-09
7.00790378872e-08
4.08765248287e-06
2.60178672234e-06
-2.60178684272e-06
3.20200932561e-06
-6.00222692298e-07
3.48916982484e-06
-2.87160581832e-07
3.92126817819e-06
-4.3209844723e-07
4.77471991526e-06
-8.53451773619e-07
3.3989449897e-06
-1.09590171409e-06
3.57275126596e-06
-8.20107057394e-07
3.77410930981e-06
-7.2254093182e-07
3.76917507522e-06
-8.30330205993e-07
3.64306865091e-06
-9.0463291895e-07
3.69830556691e-06
-8.22073966932e-07
3.79528927157e-06
-7.70298353514e-07
3.8142169783e-06
-7.92359743733e-07
3.78552619304e-06
-8.08852936566e-07
3.80765565694e-06
-7.78085148285e-07
3.85149860539e-06
-7.51175334588e-07
3.87068400567e-06
-7.47829834827e-07
3.8717602081e-06
-7.44764397984e-07
3.88467487928e-06
-7.28877535983e-07
3.90237728877e-06
-7.14096115397e-07
3.90717414804e-06
-7.05432793175e-07
3.89724541932e-06
-6.93376588998e-07
3.88306483888e-06
-6.69806077784e-07
3.86961204535e-06
-6.28078891227e-07
3.86109843283e-06
-5.7291145533e-07
3.86196632629e-06
-5.0607491425e-07
3.87524452365e-06
-4.32477794098e-07
3.89760733951e-06
-3.63444321075e-07
3.92259928177e-06
-3.06579493206e-07
3.94668810056e-06
-2.61896730859e-07
3.96905544981e-06
-2.25911668685e-07
3.98954758437e-06
-1.96383103066e-07
4.00809472063e-06
-1.7226514834e-07
4.02478901343e-06
-1.52678462215e-07
4.03984362621e-06
-1.36779322047e-07
4.05350211436e-06