/*--------------------------------*- C++ -*----------------------------------*\
| =========                 |                                                 |
| \\      /  F ield         | OpenFOAM: The Open Source CFD Toolbox           |
|  \\    /   O peration     | Version:  2.3.1                                 |
|   \\  /    A nd           | Web:      www.OpenFOAM.org                      |
|    \\/     M anipulation  |                                                 |
\*---------------------------------------------------------------------------*/
FoamFile
{
    version     2.0;
    format      ascii;
    class       volVectorField;
    location    "400";
    object      U;
}
// * * * * * * * * * * * * * * * * * * * * * * * * * * * * * * * * * * * * * //

dimensions      [0 1 -1 0 0 0 0];

internalField   nonuniform List<vector> 
10011
(
(9.84069062419 -1.23875975718 -1.27310978801e-21)
(9.7437111723 -0.732081124473 -2.30998080561e-21)
(9.54931247028 -0.468329914107 -2.77326498584e-21)
(9.34610284491 -0.308921555306 -7.18904850672e-21)
(9.16129100822 -0.208089777326 1.4684862461e-21)
(8.99547777685 -0.142442736195 6.21265429693e-21)
(8.84748445324 -0.0986301762361 -3.19848584943e-20)
(8.71723823712 -0.0689315014889 0)
(8.60491582303 -0.0487080770408 0)
(8.51087048262 -0.0350796673354 0)
(8.43596938392 -0.0262557964373 5.93000748667e-20)
(8.38199011507 -0.0211918203347 6.27597007986e-20)
(8.35219293227 -0.0194422325112 -6.33285131093e-20)
(8.35233557775 -0.021564271841 -2.69726555147e-19)
(8.39677670241 -0.0298460222371 0)
(8.51597161078 -0.0512922939078 0)
(8.77216837397 -0.101929463469 -1.26513243944e-18)
(9.58380625276 0.228458486879 -2.5841728043e-18)
(10.0343803527 0.446593896589 -9.61816673731e-22)
(10.0275385238 0.425129640755 3.06628683627e-21)
(10.0007359747 0.337406015507 1.08111223976e-21)
(9.96608700618 0.26699273216 4.6016715153e-21)
(9.93397600219 0.212444316433 -1.424178427e-20)
(9.90407579758 0.170184678845 6.2843577145e-23)
(9.8762351246 0.137561446351 1.5252983153e-20)
(9.85185810812 0.111974467259 0)
(9.83276752728 0.0912178326151 0)
(9.82089955401 0.0735342512139 8.87791761555e-20)
(9.81852279212 0.057434970677 -1.37580659307e-19)
(9.82859594333 0.0414561582798 0)
(9.85525701663 0.023729089578 0)
(9.90595728442 0.00105600907982 -2.04457104037e-19)
(9.98958259067 -0.0324291299111 0)
(10.1201187273 -0.0895874898721 -4.66866156115e-19)
(10.3116383015 -0.209974390139 1.39931394725e-18)
(10.5683910312 -0.531438519924 2.01375602328e-18)
(9.99378658082 0.0252381244531 1.24577059361e-21)
(10.0070343445 -0.0121886336845 -3.03782979549e-21)
(10.0297081776 -0.0330128527582 1.70828313767e-21)
(10.0466737669 -0.0301805808945 5.52787156519e-21)
(10.063027232 -0.0215217180803 7.1175469317e-23)
(10.0800246809 -0.0134229829387 3.25025756257e-20)
(10.0979709173 -0.00723684901837 3.37990355306e-20)
(10.1180436663 -0.00349179771516 5.26544882841e-20)
(10.1417131234 -0.00253448107962 -1.78936561121e-20)
(10.1705158959 -0.00468084907456 -3.79347725788e-20)
(10.2062471513 -0.0104245880999 1.15529336553e-19)
(10.2512103227 -0.0207164606971 1.59847433173e-19)
(10.3087400262 -0.03746366855 1.68727960901e-19)
(10.3823208438 -0.0641657812404 4.85670565517e-23)
(10.4767664824 -0.107549818344 5.38827058875e-19)
(10.5980934385 -0.181689629222 -3.58769944545e-19)
(10.7443932415 -0.316265992259 -7.53788544974e-19)
(10.8879556667 -0.552889085756 1.52978233352e-18)
(10.0009144278 0.0175069092114 0)
(10.0171673993 0.0386175644406 2.29642240632e-21)
(10.0425631912 0.0481656378389 5.20211611409e-21)
(10.0627061801 0.0546248873046 -5.65468117309e-21)
(10.0825981928 0.0563173825484 2.73572102934e-20)
(10.1045265208 0.0536758414083 -2.88945981121e-20)
(10.1287687349 0.0481520321234 -2.01797605942e-20)
(10.1560099263 0.0404717099398 -3.52508521758e-20)
(10.1872254081 0.0307012667062 2.90476639202e-20)
(10.223476991 0.0184836214223 1.16515277421e-22)
(10.2660222568 0.00301451278002 -9.37291092358e-20)
(10.3164461955 -0.0171509926632 -6.52693637448e-20)
(10.3765676831 -0.0443595290549 0)
(10.4487102138 -0.0826320926893 -1.36285151291e-19)
(10.5350223924 -0.13913785643 -2.91696024904e-19)
(10.635340124 -0.226529710171 -1.51030459374e-19)
(10.7397891108 -0.365816367722 6.28677914002e-19)
(10.8131633968 -0.579300794243 -1.29136610883e-18)
(10.003283471 0.0157005412797 0)
(10.019273315 0.034404440476 4.86046150848e-22)
(10.0419455657 0.0366950081032 -5.19045289324e-22)
(10.0617902478 0.0348827559026 6.83351168934e-21)
(10.0822826932 0.0314237863742 -7.33068128548e-21)
(10.105290141 0.0262030020122 -2.06398505467e-20)
(10.1309167732 0.0194530839443 2.17331438764e-20)
(10.1595720299 0.0110942931933 -4.55600187015e-20)
(10.1919873512 0.000652827387881 -2.41870054474e-20)
(10.2289819533 -0.0126446386352 4.96472719849e-20)
(10.2714782664 -0.0298998554016 7.77685884504e-20)
(10.3205417098 -0.0527468676816 -1.07012736308e-19)
(10.3773127362 -0.0837760092192 0)
(10.4427213646 -0.127072728589 2.24185150653e-21)
(10.5166080468 -0.189088997936 0)
(10.5954901044 -0.279528228012 2.46811397132e-19)
(10.6677778101 -0.410937612964 2.55555955195e-19)
(10.7050590738 -0.59000326234 -2.48697383824e-19)
(10.0035667531 0.0150499864509 0)
(10.0180538272 0.0288219292681 -4.43846357753e-21)
(10.0387038939 0.0303895019381 -7.51718756438e-21)
(10.0585088517 0.028488799434 -6.94806891332e-21)
(10.0792178387 0.0251788264016 -4.20445885407e-21)
(10.1022633272 0.0198852299656 2.18992448143e-20)
(10.1278128446 0.0124644132011 -4.59884316553e-20)
(10.1562003516 0.00275185566676 4.79231266172e-20)
(10.1880039658 -0.00973703814514 -6.01754353059e-20)
(10.2238605769 -0.0257578424732 4.15222854697e-20)
(10.264410223 -0.0464463436346 2.22707770721e-20)
(10.3102668197 -0.0734914386143 1.15410822401e-21)
(10.3618547021 -0.109390196861 9.3007271922e-20)
(10.4189901208 -0.157803400989 -4.46166533466e-20)
(10.4799905498 -0.223904090656 1.94727547529e-19)
(10.5399442936 -0.314289593651 -9.6858708315e-20)
(10.5882207444 -0.435299418752 2.06240477289e-19)
(10.6043452978 -0.585890180663 -1.02592797999e-19)
(10.0031762006 0.0117730528026 0)
(10.015934173 0.02159842473 3.2876106071e-21)
(10.0347888353 0.0228951480366 4.27084544342e-21)
(10.0541662929 0.0205246938458 -2.6648817519e-21)
(10.0746132142 0.0161784194239 9.1929103959e-21)
(10.0971980187 0.0095335450155 -3.85426163945e-21)
(10.1221393677 0.00043945607271 3.97997107542e-21)
(10.1496879256 -0.0112931806059 0)
(10.1802729813 -0.0261304598438 3.40326789391e-20)
(10.2143173053 -0.0448725153769 0)
(10.2521709206 -0.0686725552664 7.26284751067e-20)
(10.2940222564 -0.0991550093299 -3.81094184658e-20)
(10.3396849147 -0.138575569608 3.74949658549e-20)
(10.3881800103 -0.189953951914 1.61247256696e-19)
(10.4370249894 -0.257042893779 -2.4975471449e-19)
(10.4811488396 -0.343764618218 2.54288988322e-19)
(10.5119944035 -0.452389299072 -1.75059360917e-19)
(10.515742764 -0.578488149147 -1.70159079143e-19)
(10.0028587886 0.0089230177014 8.62689508316e-22)
(10.0141848892 0.0161605513669 0)
(10.0314186735 0.0168270222324 0)
(10.0499902944 0.0137182543078 7.72787225345e-21)
(10.0698440974 0.0083142729298 -1.60204757768e-20)
(10.091728685 0.000488881934567 -4.18311543567e-21)
(10.1158278859 -0.00994430591121 2.1515369417e-20)
(10.1423092613 -0.0232264393655 -2.67981022157e-20)
(10.1714409458 -0.039872596573 -1.85098247394e-20)
(10.2034625271 -0.0606810514332 -9.47103518697e-21)
(10.2384831832 -0.0867613038868 -3.98554468305e-20)
(10.2763676947 -0.119601896044 2.0657378778e-20)
(10.3165230324 -0.161135399854 -1.48268719154e-19)
(10.357541553 -0.213724683823 4.29736409418e-20)
(10.396693921 -0.279940706468 0)
(10.4293138746 -0.361884074615 4.61011120633e-20)
(10.4487135789 -0.459661647975 -4.60636329519e-20)
(10.4452561633 -0.56801923313 1.4065392527e-19)
(10.0026086237 0.00651007033338 -8.1754015745e-22)
(10.0127359536 0.0115580405237 0)
(10.0284868401 0.0112655673613 0)
(10.0461150654 0.00733590448927 -9.05704226887e-21)
(10.0652097624 0.000955998581928 9.30346555849e-21)
(10.086248728 -0.00793997146819 0)
(10.1093656275 -0.0195617282999 3.96958646101e-21)
(10.1346350076 -0.0342045209879 -3.9692184226e-21)
(10.1621901772 -0.0523860584841 0)
(10.1921082951 -0.0748747369609 0)
(10.2242997213 -0.102698741831 -7.06052624204e-20)
(10.2583862839 -0.137170566377 0)
(10.2935093981 -0.17988384716 0)
(10.3280518707 -0.232612933079 -3.72376760878e-20)
(10.3593116792 -0.29701510083 -1.16019400581e-19)
(10.3832155427 -0.373995438435 0)
(10.3946169816 -0.462543766664 0)
(10.3867449526 -0.557528813475 3.94299223539e-20)
(10.0023549627 0.00405378326473 0)
(10.0112930688 0.00679235542269 0)
(10.0254606705 0.00524114433069 -4.28951945872e-21)
(10.0418779415 0.000302766522177 -2.63097534797e-21)
(10.0598989134 -0.00717825584065 0)
(10.0797573371 -0.0172473721475 3.62799036858e-21)
(10.1015074077 -0.030145628819 7.48716762315e-21)
(10.1251311099 -0.0461940204004 1.1532422148e-20)
(10.1506210533 -0.0658971531173 0)
(10.1778892596 -0.0899637528678 0)
(10.2066586664 -0.119297217829 6.53108609748e-20)
(10.2363487268 -0.154980910077 -3.3155136348e-20)
(10.2659237318 -0.198222325028 0)
(10.2937086624 -0.250203091723 6.9889849632e-20)
(10.3172303551 -0.311774533234 3.63240698653e-20)
(10.3331727102 -0.382946791518 3.57443386264e-20)
(10.337830296 -0.462109191972 -7.15677146968e-20)
(10.3267097771 -0.544641012188 3.42476200011e-20)
(10.0020890389 0.00153514595373 1.92482455413e-22)
(10.0098718712 0.00187605292124 -2.00960736085e-22)
(10.0224071308 -0.00117223290387 4.09343810373e-21)
(10.0373735416 -0.0073085201451 2.50130690017e-21)
(10.0540031573 -0.0160167237644 0)
(10.0723109346 -0.027358653763 -6.89126334123e-21)
(10.092263269 -0.0415856872872 0)
(10.1137472523 -0.0590295259056 0)
(10.1366205494 -0.0801591090692 7.12945205606e-21)
(10.1606428473 -0.105590482449 7.30640239658e-21)
(10.1853809988 -0.136061222453 -4.49216927617e-20)
(10.2101158046 -0.172385992332 3.05625223963e-20)
(10.2337416093 -0.215370015998 1.54968793612e-20)
(10.2546741309 -0.2656488631 1.5373950286e-20)
(10.2708210914 -0.323431378425 2.57020045741e-22)
(10.2796770239 -0.3881490842 3.15427294172e-20)
(10.2787745145 -0.45800988862 6.29811270379e-20)
(10.2652693184 -0.529127236887 -9.42125795402e-20)
(10.0018146214 -0.00101628932422 0)
(10.0084829532 -0.00310998441698 0)
(10.0193630943 -0.00785327430233 1.525691946e-21)
(10.0326684459 -0.0153536998748 -3.86520479266e-21)
(10.0475958376 -0.0253867748487 -7.9382262797e-22)
(10.0639855934 -0.0380441635285 1.57946716109e-21)
(10.0817065607 -0.0535787532489 0)
(10.1005540116 -0.0723115224798 6.48526271563e-21)
(10.1202681201 -0.0946508310917 -6.61132977559e-21)
(10.1404857467 -0.121090194909 -6.63389542182e-21)
(10.1606682981 -0.15217210478 1.35876155574e-20)
(10.1800384602 -0.188428274836 1.35286928685e-20)
(10.1975310393 -0.230286745038 1.36334699164e-20)
(10.2117739667 -0.277934126604 -1.41399414532e-20)
(10.2211373884 -0.331134699038 1.36325107735e-20)
(10.2238773774 -0.389031879463 -1.35562619919e-20)
(10.2184993314 -0.449939569732 -4.22780962402e-20)
(10.2032488937 -0.510766021605 1.34411117521e-20)
(10.0015360982 -0.00354711063335 -3.31356601283e-22)
(10.007126936 -0.00805948551245 3.47771639098e-22)
(10.0163348945 -0.014634351722 -3.52688187242e-22)
(10.027792263 -0.0236173375251 2.12040516661e-21)
(10.0407256768 -0.0350098808567 -7.21156220548e-22)
(10.0548475021 -0.0489458874585 1.43332075577e-21)
(10.0699322394 -0.0656681401505 0)
(10.0856949432 -0.0854632827527 -5.88945223644e-21)
(10.1017873831 -0.108656810659 0)
(10.1177675788 -0.135600458657 5.99156514002e-21)
(10.1330544327 -0.16663301853 -5.98034489087e-21)
(10.146895655 -0.202020916101 -1.22078514317e-20)
(10.1583592588 -0.241879298631 -2.67987879153e-22)
(10.1663592329 -0.286075190159 0)
(10.169734326 -0.334124737326 -2.47638064223e-20)
(10.1673797821 -0.385109233717 1.2597708548e-20)
(10.1584990574 -0.437604120181 1.21178425491e-20)
(10.1419952402 -0.489252863749 -3.548801899e-20)
(10.0012557072 -0.00598934316493 5.99903178039e-22)
(10.0057952869 -0.0128418763034 -3.12056670066e-22)
(10.013313067 -0.0212863629873 -2.20532893971e-21)
(10.0227626065 -0.031780718184 3.58488022054e-24)
(10.0334388224 -0.0444796601521 3.19188376797e-21)
(10.0449763379 -0.0595539663761 -1.28159346642e-21)
(10.0570750954 -0.0772238291823 -2.59723743532e-21)
(10.06939323 -0.0977216137318 5.15683468263e-21)
(10.0815337431 -0.121276143537 2.60756205536e-21)
(10.093028981 -0.148094866016 5.2765517934e-21)
(10.1033198605 -0.178329419013 -1.57870029466e-20)
(10.1117488959 -0.212028739579 1.05154220415e-20)
(10.1175758234 -0.249085431976 -1.05924255628e-20)
(10.1200197807 -0.289182256509 -1.07181631146e-20)
(10.1183333831 -0.331750452655 1.05557283412e-20)
(10.111895255 -0.375954279241 -1.03437086967e-20)
(10.1003649245 -0.420681246079 0)
(10.0830041707 -0.464189708705 2.03654353043e-20)
(10.0009754546 -0.00825217148819 -2.68101412029e-22)
(10.0044822653 -0.0172742020294 2.80531401904e-22)
(10.0102948739 -0.0274974959506 1.40535186752e-21)
(10.0176137155 -0.0394074414246 1.12226891367e-21)
(10.0258219416 -0.0532403261815 -2.83629918493e-21)
(10.0345242545 -0.0691850826548 5.65819989275e-22)
(10.0433794003 -0.0874285655032 1.14140507565e-21)
(10.0520226226 -0.108138136727 -5.73607317803e-21)
(10.060053545 -0.131445663801 0)
(10.0670320741 -0.157431076662 0)
(10.0724751551 -0.186098254363 4.26044683674e-23)
(10.0758645286 -0.217346269628 -6.33500122718e-23)
(10.0766703128 -0.250942074645 9.33318335909e-21)
(10.0743898218 -0.2865010412 -1.38106631755e-20)
(10.0686008026 -0.323482375815 0)
(10.0590128401 -0.361203974158 -4.22889771939e-21)
(10.0455551987 -0.398849172071 1.77836961733e-20)
(10.0276630085 -0.435157850721 -2.61436631638e-20)
(10.0006985522 -0.0102198459145 0)
(10.0031940006 -0.0211215875569 2.45605491333e-22)
(10.0073074315 -0.0328825869412 0)
(10.012434061 -0.0459589308454 -1.48705153562e-21)
(10.0180542631 -0.0606086855516 -4.90395307017e-22)
(10.023783664 -0.0770159544536 0)
(10.0292792106 -0.0953279614321 -9.92885674556e-22)
(10.0341920444 -0.11564850856 4.94336255137e-21)
(10.0381613471 -0.138027236633 -1.4537782974e-23)
(10.0408172939 -0.162449420582 0)
(10.041786654 -0.188823954068 1.95305510122e-21)
(10.0407050868 -0.216971655479 3.9326242641e-21)
(10.0372376265 -0.246618035731 5.67958800135e-23)
(10.0311051074 -0.277394240769 0)
(10.0221148129 -0.308848746332 -3.79933738242e-21)
(10.0101811261 -0.340468846604 3.89025523383e-21)
(9.99537433992 -0.37168480071 -3.71183185404e-21)
(9.97719648533 -0.401598296227 7.28734679469e-21)
(10.0004283283 -0.0117467195533 -1.02384063114e-22)
(10.0019512644 -0.0240835889418 -2.69071578366e-22)
(10.0044209219 -0.0369632938559 3.20336281409e-22)
(10.007391467 -0.0507755650222 0)
(10.0104420858 -0.0657587232246 8.6143718173e-22)
(10.0132297328 -0.0820747933487 -4.28051387168e-22)
(10.0154458599 -0.0998329236809 1.28139621658e-21)
(10.0167925624 -0.119087271719 -2.57208521963e-21)
(10.0169811279 -0.13983269167 -3.40103398505e-21)
(10.01573728 -0.162001958891 1.67559885721e-21)
(10.0128084371 -0.185463782548 -4.1024703205e-23)
(10.0079737496 -0.210022828349 0)
(10.0010568534 -0.235423756744 -3.31613599972e-21)
(9.99193938317 -0.261360591943 1.64230476674e-21)
(9.98057481858 -0.287491550419 6.59047963825e-21)
(9.96699122894 -0.31345665527 -3.20806225893e-21)
(9.95132150294 -0.338875316272 8.00163328022e-21)
(9.93308333017 -0.363114900148 0)
(10.0001991984 -0.0126631761916 1.00695516045e-22)
(10.0009045173 -0.025808778998 0)
(10.0019881679 -0.0392025188036 -9.92544887695e-25)
(10.003123273 -0.0531526587024 -2.0854987534e-22)
(10.0039731759 -0.0678619476558 2.07047655742e-22)
(10.0042475175 -0.0834700320823 8.33345177596e-22)
(10.0036918463 -0.100061795363 -8.30710463813e-22)
(10.0020757609 -0.117665876578 0)
(9.99919158752 -0.136255602187 1.67604752059e-21)
(9.99485839273 -0.155751708963 -2.48562635495e-21)
(9.98892728335 -0.176026098439 -1.65312405111e-21)
(9.98128709547 -0.196907422147 0)
(9.97187019215 -0.218189174298 0)
(9.96065728735 -0.239640315648 -4.78227804044e-21)
(9.9476821077 -0.261017786584 4.70879351939e-21)
(9.93302617549 -0.282078399886 1.53220120524e-21)
(9.91684318099 -0.302572150806 -2.1671688781e-23)
(9.89864924467 -0.322048878497 -4.45027961585e-21)
(10.0000460028 -0.0129996860188 -5.53750408522e-23)
(10.0001977813 -0.0263769363288 0)
(10.0003343987 -0.0397478716606 0)
(10.0001974384 -0.0533364232085 4.59542277282e-22)
(9.99949916253 -0.0673162827893 -6.9030535497e-22)
(9.99799108162 -0.081820587287 -4.96624872791e-24)
(9.99547139205 -0.0969296374557 6.86924923399e-22)
(9.99177214823 -0.112669182304 -4.53345291821e-22)
(9.98675404986 -0.129015987694 4.60884646751e-22)
(9.98030869214 -0.145903372999 8.99241699018e-22)
(9.97236159031 -0.163226983306 0)
(9.96287413636 -0.180852090594 0)
(9.95184489811 -0.19862228661 0)
(9.93930988162 -0.216368978252 -2.58198885261e-21)
(9.92534314251 -0.233921012496 -1.22982976741e-23)
(9.9100486798 -0.251112498461 -4.22477468614e-21)
(9.89358496022 -0.267774697266 5.01435369261e-21)
(9.87546054027 -0.28357453646 1.61542256332e-21)
(9.9999554117 -0.012991478583 -3.00214151155e-23)
(9.99978594111 -0.0262819474586 3.15932393711e-23)
(9.99937766957 -0.0393440403952 -1.87496933543e-22)
(9.99848714941 -0.0523105019739 -2.51479803401e-22)
(9.9968288607 -0.0653485503021 0)
(9.99417963777 -0.0786083475299 -5.01250383929e-22)
(9.99038489473 -0.0921803995671 0)
(9.98532894758 -0.106100166553 0)
(9.97892493752 -0.120359909946 -4.91366450074e-22)
(9.97111743728 -0.134914565211 4.90492738058e-22)
(9.96188366609 -0.149687577589 9.68372586593e-22)
(9.95123236935 -0.1645787954 -1.92595965172e-21)
(9.93920245376 -0.179472986813 9.57434054193e-22)
(9.92586116312 -0.194248006496 9.51489106295e-22)
(9.91130317793 -0.208782218017 0)
(9.89564168117 -0.22295977822 -9.02257409225e-22)
(9.87903510132 -0.236662520756 1.82518789628e-21)
(9.86098357505 -0.249634384051 1.75009884606e-21)
(9.99990139759 -0.0128280385347 -5.48523810707e-26)
(9.99957963878 -0.0259286860286 1.19217571485e-22)
(9.99894897825 -0.0385761511078 1.02496756661e-22)
(9.9977116957 -0.0507968069797 0)
(9.99552784384 -0.0628002882565 0)
(9.99219310272 -0.0747823437828 2.70314956286e-22)
(9.98760235469 -0.0868500007713 0)
(9.98168386955 -0.099053773967 -2.68462770995e-22)
(9.97439074737 -0.111407318492 0)
(9.96570786851 -0.123889826969 0)
(9.9556505579 -0.136451185304 5.26994862089e-22)
(9.94426042718 -0.149020765052 0)
(9.93160272796 -0.161515890338 0)
(9.91776398679 -0.173849015875 0)
(9.90285086837 -0.185933773733 0)
(9.8869813667 -0.19768890693 0)
(9.87031512503 -0.209031103608 9.8566261721e-22)
(9.85234775239 -0.219760044143 -9.68646727994e-22)
(9.99985000918 -0.0125978035401 -1.76219001337e-23)
(9.99949084138 -0.0255646609721 -3.65588881562e-23)
(9.99892071357 -0.0377972574865 3.67193457041e-23)
(9.99766751582 -0.049201321745 -3.67783312748e-23)
(9.99526985939 -0.0601231049954 -7.34884978798e-23)
(9.99156240094 -0.0708315012935 -3.67997325668e-22)
(9.98650201987 -0.0814469442949 0)
(9.9800520431 -0.0920374184484 2.93679764792e-22)
(9.97219565575 -0.102640702479 -4.35852676203e-22)
(9.96295085345 -0.113259059829 1.45370534341e-22)
(9.95236337304 -0.123865299138 -8.65687338781e-22)
(9.94049925197 -0.134413352498 5.69651649671e-22)
(9.92744208166 -0.144846529819 -5.67088171774e-22)
(9.91329082976 -0.155103755081 0)
(9.89815878903 -0.1651246844 -2.76665367168e-22)
(9.88216488121 -0.174852837205 0)
(9.8654683635 -0.184229511689 0)
(9.84755412565 -0.193093790999 -1.04864496663e-21)
(9.99974545716 -0.0123170587356 9.39439721031e-24)
(9.99941179137 -0.0253670605431 3.94200539302e-23)
(9.99919111243 -0.0372528469406 0)
(9.99820875522 -0.0478179515518 0)
(9.9958159825 -0.057685836767 -3.95914971435e-23)
(9.99194872171 -0.0671916666356 2.77989922301e-22)
(9.98664344379 -0.0764588298261 -3.16841614539e-22)
(9.97988771462 -0.0855833123555 7.9356219455e-23)
(9.97168916974 -0.0946306461376 1.75582151225e-24)
(9.96209552631 -0.103621080435 1.57871240055e-22)
(9.95117722089 -0.112542992079 3.14269268574e-22)
(9.9390182939 -0.121367310648 -6.22992711848e-22)
(9.92571525065 -0.1300555703 1.90992424801e-24)
(9.9113754989 -0.138565411737 3.05803714734e-22)
(9.89611663154 -0.146855405083 2.74132257923e-24)
(9.8800585118 -0.154888513666 -2.96550064005e-22)
(9.86336595396 -0.162629386199 2.99185988358e-22)
(9.84552192796 -0.169956632131 5.82022971856e-22)
(9.99949911215 -0.0119375905541 -1.0050082176e-23)
(9.9991907399 -0.0254427315275 -1.04591195786e-23)
(9.99961920798 -0.0368657360574 2.09860464796e-23)
(9.99911062659 -0.0464165906987 5.28221162401e-23)
(9.99683371004 -0.0552017151828 0)
(9.99293169473 -0.0635099715729 8.52306580614e-23)
(9.98751428187 -0.0714283534363 2.57026418138e-22)
(9.98057694827 -0.0790989835668 8.55149068442e-23)
(9.97215577677 -0.0866290145358 1.715593894e-22)
(9.96233091188 -0.0940623642399 -1.71108105726e-22)
(9.9511939012 -0.101405195644 1.70751382225e-22)
(9.93884145136 -0.108644511903 1.72079703441e-22)
(9.92537806834 -0.115756148184 5.10794941778e-22)
(9.91091499617 -0.122710360127 -5.06408209648e-22)
(9.89556895976 -0.12947710309 1.14481372612e-24)
(9.87945296375 -0.136030306284 3.33764807041e-22)
(9.8627253342 -0.142348782483 -1.64710200651e-22)
(9.84482325381 -0.148333682532 3.2217094797e-22)
(9.99904785548 -0.0114247786673 0)
(9.99875079008 -0.0267070956598 0)
(10.0002097332 -0.0376693072859 -8.87892043031e-26)
(10.0002214588 -0.0460819976853 -4.5360577715e-23)
(9.99803467562 -0.0539708068962 0)
(9.99416988099 -0.0614350063696 -9.26005271555e-23)
(9.98873972777 -0.0684333369808 -1.39934607128e-22)
(9.9817030085 -0.075096381103 -4.68382403141e-23)
(9.97312218781 -0.0815283607389 4.70309904129e-23)
(9.96311037816 -0.0877750350505 1.89920855307e-22)
(9.95177815409 -0.0938554009313 -9.57250355439e-23)
(9.93923381474 -0.0997751392986 -7.99424852607e-25)
(9.92559018736 -0.105529487678 -1.90474083951e-22)
(9.91096362256 -0.111106603456 9.44547020614e-23)
(9.8954724209 -0.116492303725 9.44811222036e-23)
(9.87922803217 -0.121676013434 9.40916037086e-23)
(9.86240010064 -0.126662246654 3.7418163066e-22)
(9.84441628267 -0.131406549968 -5.54537615008e-22)
(9.99763000916 -0.00820092437134 1.38903769562e-24)
(9.99706195944 -0.0268555265278 -1.46739441516e-24)
(10.0002513277 -0.0371079011826 -1.80966913963e-23)
(10.0007276527 -0.0433322847272 1.85304870853e-23)
(9.99838203796 -0.0489041899586 0)
(9.99441253912 -0.0541515825466 0)
(9.98889441313 -0.0592125749839 7.86210128903e-23)
(9.98171885084 -0.0642592491615 -2.66322138642e-23)
(9.97295804148 -0.0693343884773 -5.39195613799e-23)
(9.96273755665 -0.0744103490424 0)
(9.95117088923 -0.0794496208752 0)
(9.93836916072 -0.0844172258857 0)
(9.92444974586 -0.089279576477 1.65426800635e-22)
(9.90953293658 -0.0940044959467 -5.55160158616e-23)
(9.89373717159 -0.0985625133229 2.20423034614e-22)
(9.87716300455 -0.10292988907 -2.21445933517e-22)
(9.85995514978 -0.107103046852 0)
(9.84134712168 -0.111044030913 -1.0790983563e-22)
(9.99403543181 -0.00545864521425 -7.42948483093e-25)
(9.99223310214 -0.0304249346347 8.10520494323e-25)
(9.99873640146 -0.0467248965994 0)
(10.0005633598 -0.0585719321482 -4.27710304461e-23)
(9.99832901739 -0.0671519866591 0)
(9.99401748597 -0.0728981000246 0)
(9.98782547453 -0.0769102977405 -1.56021575201e-23)
(9.97976168328 -0.0800331160126 4.76932531176e-23)
(9.97000619318 -0.0826987926367 -6.46725523499e-23)
(9.95873304846 -0.0851279054682 0)
(9.94607201842 -0.0874450489791 0)
(9.93214223161 -0.0897165436515 0)
(9.91706726873 -0.0919689215433 6.65655971995e-23)
(9.90097297486 -0.0942025732059 -6.67109558242e-23)
(9.88398324217 -0.0964003543631 -6.69575126907e-23)
(9.86620371973 -0.0985332674781 6.66599668717e-23)
(9.84780344339 -0.100583587433 0)
(9.82797259975 -0.102511186454 0)
(9.98450324091 0.0042530709449 0)
(9.97840625695 0.0215632563457 0)
(9.98576659307 0.0314114395243 0)
(9.98861344073 0.0252052389208 8.76616604359e-24)
(9.9874538793 0.0134756536198 4.57044605124e-24)
(9.98340349194 0.00149197292988 1.43047467923e-23)
(9.97632143326 -0.00969362636927 -9.62831200947e-24)
(9.96640094605 -0.0198820341085 -1.98010001254e-23)
(9.95404785269 -0.0289950997129 -9.95984369391e-24)
(9.93958952267 -0.0370621070555 -6.02656285541e-23)
(9.923267595 -0.0441811457126 2.02594027281e-23)
(9.90529247106 -0.0504676139562 2.0438735062e-23)
(9.88586379968 -0.0560285132144 -6.10177223506e-23)
(9.86517192177 -0.0609533860344 8.16386077717e-23)
(9.84339733752 -0.065309156072 -8.10736640496e-23)
(9.82069080811 -0.0691319184874 -8.12437402986e-23)
(9.79725148083 -0.0724288520635 -2.02515072691e-25)
(9.77174460096 -0.0750660205549 -4.00046087813e-23)
(10.0130253004 -0.318260428105 -5.03541546469e-25)
(10.0067567456 -0.32818506016 6.69461665693e-25)
(9.99059038675 -0.274334788677 -2.04453852501e-24)
(9.96758959238 -0.228666617184 1.13843856068e-23)
(9.94444407377 -0.192941465054 -1.47485801266e-24)
(9.92010524802 -0.164651775741 -2.06642224992e-23)
(9.89298426566 -0.142658472094 -3.01578085823e-24)
(9.86286410302 -0.125765755836 0)
(9.83003456919 -0.112799302616 -1.21360759236e-23)
(9.79480471791 -0.102820249673 4.87013525909e-23)
(9.75746738221 -0.095124135562 1.2174351371e-23)
(9.71832586126 -0.0891804330204 -8.55290627684e-23)
(9.67768911848 -0.084584373262 -1.21532308912e-23)
(9.63586001104 -0.0810228066986 -3.645660433e-23)
(9.59313327851 -0.0782459643496 7.28515356549e-23)
(9.54978486531 -0.0760350318018 9.66497440479e-23)
(9.50624296173 -0.0741590865728 -9.63645503443e-23)
(9.46082278473 -0.0720349705387 8.39526336219e-23)
(9.95343180804 0.912949175057 6.76988768382e-25)
(9.95058756572 0.56052949134 4.05093972239e-25)
(9.85785533028 0.374604388647 3.07723299359e-24)
(9.73764261217 0.257353428676 0)
(9.61498525003 0.178931675817 0)
(9.49362279697 0.124974113462 0)
(9.37389265462 0.0867964072318 0)
(9.25666912977 0.0591743222471 0)
(9.14268004635 0.0388713560038 1.509478915e-23)
(9.03226920603 0.0237699983978 0)
(8.92555624744 0.0124293115024 3.80052399563e-24)
(8.82256505513 0.00384558755816 1.92280959639e-23)
(8.72327126588 -0.00269226933052 7.72742662575e-24)
(8.62762211531 -0.00769467802145 7.67260416326e-24)
(8.53555760534 -0.0115299177633 -3.09900595346e-23)
(8.44701662042 -0.0144585678579 -3.86784361101e-23)
(8.36226461674 -0.0166206098408 0)
(8.27831234263 -0.0179433278201 -1.53995247609e-23)
(2.26577816427 -0.304803776222 -3.56775286705e-16)
(2.10244190326 -0.201129123346 0)
(2.05359345717 0.0478570566368 -4.55687196367e-18)
(2.16041393215 0.0512578943333 0)
(2.23938716409 0.0391614226295 0)
(2.27448347348 0.0289454573718 -3.27992255766e-18)
(2.29696908534 0.0224508717549 1.62491259397e-18)
(2.31784884897 0.0177352873372 0)
(2.33656916503 0.0140183276645 0)
(2.35240841739 0.0110874860942 2.61112361979e-19)
(2.36596262479 0.0087757531573 -2.59936299658e-19)
(2.37798464134 0.00692445926249 -1.28584361197e-19)
(2.38897225902 0.00541361561335 1.28109357473e-19)
(2.39927192567 0.00415952140264 0)
(2.40917404983 0.00310353729549 0)
(2.41892322804 0.00220518883862 -5.3357617645e-19)
(2.42870359137 0.00143892129973 1.56560963759e-20)
(2.43862576099 0.000792448427372 1.55268616017e-20)
(2.44871121226 0.000266095670649 -4.85687216692e-19)
(2.45886927721 -0.000126979456273 4.82880387488e-19)
(2.46886340249 -0.000359861887139 0)
(2.47826512287 -0.000391675646006 -1.89483205645e-21)
(2.48639834163 -0.000173730631749 9.68437673558e-19)
(2.49226784611 0.000310867755916 9.64245764769e-19)
(2.49500942622 0.0010936882134 -1.40687689569e-21)
(2.49283991601 0.00229609015378 7.01824370497e-22)
(2.48229028819 0.00443996072576 9.5683746921e-19)
(2.46203214495 0.00918341422858 0)
(2.35770278371 0.0313174398974 1.1798522089e-22)
(2.53386893939 -0.377250547129 1.56552074933e-16)
(2.45921475893 -0.374310721514 4.66105494431e-17)
(2.4029866519 -0.355448628416 -8.23898943888e-17)
(2.39787471898 -0.323409679376 1.62840469865e-16)
(2.37032895701 -0.292027724353 -4.51641313332e-19)
(2.38015052043 -0.14055959936 3.98274220025e-18)
(2.47775664532 -0.0807521486518 0)
(2.56711868854 -0.0637589676927 3.70995598812e-18)
(2.62457560367 -0.0527811514991 -2.73625420259e-18)
(2.66804715875 -0.0424917765446 4.44804363209e-19)
(2.70721263695 -0.0344005695415 -8.73945992289e-19)
(2.74287585592 -0.0284242527439 0)
(2.77488617773 -0.0238748171477 0)
(2.803899212 -0.0203305348237 -2.08714593242e-19)
(2.83066867773 -0.017578889565 1.03683970406e-19)
(2.85571502099 -0.0154714420297 -7.12970985239e-19)
(2.87940183672 -0.013883686642 8.05256573073e-19)
(2.90202123665 -0.0127103743972 4.96828477941e-20)
(2.92381077082 -0.0118600128314 3.68710048267e-19)
(2.9449467747 -0.0112474407372 -2.43373505506e-20)
(2.96553749615 -0.0107874556695 1.20060645242e-20)
(2.98561387477 -0.0103891749615 3.74432024584e-19)
(3.00511501949 -0.00995046751561 -3.82220435359e-19)
(3.02386690598 -0.00935221523565 0)
(3.04155449488 -0.00845454133288 0)
(3.05768450627 -0.00710093023794 -7.30533524157e-19)
(3.07156335363 -0.00515343302285 -2.17154641142e-18)
(3.0818349591 -0.0024315345663 6.99190593793e-22)
(3.08800620752 0.0014716955314 0)
(3.08798278895 0.00789063990656 -2.065921768e-18)
(3.08326642186 0.0212655846653 8.16210195295e-23)
(3.02913710144 0.0592691774101 -1.26369104718e-18)
(2.80316545565 -0.425356523263 0)
(2.73387179082 -0.427937351344 0)
(2.67770329396 -0.413225787608 7.84462397434e-17)
(2.63718737364 -0.410370184476 -6.52528552995e-17)
(2.64904053022 -0.390684960473 -6.95979427876e-17)
(2.67502411759 -0.370295084468 6.20812883341e-18)
(2.680541279 -0.347391346398 -6.1475900201e-18)
(2.68814293842 -0.307664935677 0)
(2.6916304688 -0.254702720079 -9.41375422774e-18)
(2.71569980502 -0.148981223437 6.54330725986e-18)
(2.78637930433 -0.0871257596169 0)
(2.86124936733 -0.0645890095657 7.99478032385e-19)
(2.91822206497 -0.0528688038277 -7.81835895093e-19)
(2.96413258676 -0.0437221496963 0)
(3.00585397912 -0.0371165600675 7.5614905153e-19)
(3.0445633842 -0.0326647439958 1.48348789805e-18)
(3.08017014992 -0.0295329973054 7.27989953861e-19)
(3.1130851528 -0.0272082856828 1.43642360853e-18)