/*--------------------------------*- C++ -*----------------------------------*\
| =========                 |                                                 |
| \\      /  F ield         | OpenFOAM: The Open Source CFD Toolbox           |
|  \\    /   O peration     | Version:  2.3.1                                 |
|   \\  /    A nd           | Web:      www.OpenFOAM.org                      |
|    \\/     M anipulation  |                                                 |
\*---------------------------------------------------------------------------*/
FoamFile
{
    version     2.0;
    format      ascii;
    class       volScalarField;
    location    "300";
    object      epsilon;
}
// * * * * * * * * * * * * * * * * * * * * * * * * * * * * * * * * * * * * * //

dimensions      [0 2 -3 0 0 0 0];

internalField   nonuniform List<scalar> 
10011
(
1739.51970695
3022.16542648
4034.82817351
4725.13733739
5151.76437148
5390.57111098
5505.66662145
5544.29445724
5539.12426837
5512.1994875
5478.57670787
5449.20634587
5433.23119578
5440.00844425
5471.51550109
5531.89188397
5622.86870354
6605.05800568
187.180268176
344.286881209
469.488026088
568.68445073
639.785233742
686.39658965
714.724818094
730.480367639
738.019745876
740.384071878
739.543002667
736.619665867
731.988528003
723.677373887
713.940024885
703.551727876
683.030017208
649.102882227
41.8147810364
72.3031022134
98.0055575503
119.504004502
136.686647108
149.679651658
159.003331206
165.297845798
169.168799892
171.122881901
171.535074956
170.625553942
168.131631595
164.806089523
161.132667786
156.610627744
150.317842493
141.369431777
20.3485448928
27.9133943224
35.2743444341
41.9204324039
47.6674457946
52.4516247761
56.3035444039
59.3002873599
61.5330328758
63.0879283875
64.0116993887
64.3098365497
64.2808553726
63.9530870779
63.3396816594
62.4221214684
61.1664540615
59.55587493
16.0512987206
18.1891531857
20.6081970467
23.0119058751
25.254758073
27.2613946119
29.0014716037
30.4703367689
31.6749345414
32.6133811094
33.3190195607
33.8473375657
34.2212434081
34.4606695196
34.5857358369
34.6209047787
34.592029913
34.4638277632
15.0109722256
15.537027731
16.288944518
17.1443758353
18.0211884549
18.8664609399
19.6486569977
20.350262383
20.9567830054
21.4798847848
21.9270984273
22.3056538519
22.6248189653
22.8964275193
23.1361577567
23.3642869779
23.5970256528
23.7933117332
14.7573959839
14.7792350623
14.9146702539
15.1333598538
15.4040418609
15.7000007588
16.0003920277
16.290015565
16.5656188242
16.8229991149
17.0613672488
17.2825032078
17.4907217715
17.6931038154
17.8996182662
18.1219165005
18.3651212753
18.5934375915
14.7057978245
14.5996746758
14.5491394488
14.5494723329
14.5910375076
14.6624675903
14.7531062383
14.8557783516
14.9650189699
15.0773240426
15.1911633157
15.3069287464
15.4269587568
15.5555436701
15.6985770021
15.8620124963
16.0457803611
16.2211623169
14.6919254981
14.5453179923
14.4267739565
14.3372859153
14.2752582081
14.2372627311
14.2196401564
14.2186802051
14.2313995879
14.2557650966
14.2908563289
14.3369839632
14.395748077
14.4699438093
14.5630640225
14.6778465206
14.8119010765
14.9420096426
14.6879437186
14.5281762241
14.3844154815
14.2575014636
14.1477164545
14.0548195738
13.9780301436
13.9163851118
13.8690515156
13.8355453961
13.8159031258
13.8108035448
13.8215962702
13.8501491695
13.8983541147
13.9669771968
14.0527446928
14.1377937943
14.6869065541
14.5234627809
14.3719182002
14.2322881498
14.104692669
13.989266972
13.8860694369
13.7951513224
13.7166651284
13.6509534194
13.5986209629
13.5605732349
13.5379760522
13.5320727461
13.5437750059
13.5728754218
13.6162347272
13.6608444146
14.6866465243
14.5221934631
14.3684455723
14.2250563158
14.0918182276
13.9686814601
13.8556945672
13.7530143722
13.6609414003
13.5799414089
13.5106488473
13.4538408459
13.4103539355
13.3809107019
13.3658258342
13.3645268331
13.3744855089
13.3866507958
14.6866145377
14.5217931997
14.3672572891
14.2225815531
14.0874252923
13.9615873774
13.8449842758
13.7376500766
13.639749068
13.5515749874
13.4735301405
13.4060788977
13.3496640022
13.304575175
13.2707661975
13.247591684
13.2332022203
13.2214970401
14.6866917168
14.5216732419
14.3666780386
14.2212696924
14.0850638135
13.9577786694
13.839230559
13.7293302912
13.6280839415
13.5355837632
13.4519831619
13.377453731
13.3121218709
13.255985094
13.2088121582
13.1700097983
13.1382951983
13.1096440232
14.6868416695
14.5217060739
14.366369831
14.2203810641
14.0833290593
13.9548795025
13.8347756812
13.7228335428
13.6189361066
13.5230213625
13.4350601718
13.3550239316
13.2828431315
13.2183597186
13.1612775586
13.1110979437
13.0669587012
13.0262604113
14.6870306869
14.5218322116
14.3662382264
14.2197694153
14.0819877546
13.9525173384
13.8310458865
13.7173193825
13.6111341256
13.5123246624
13.4207463582
13.3362531663
13.258672374
13.1877789023
13.1232718659
13.0647440139
13.0116256149
12.9622896832
14.6872133032
14.5219840203
14.3661992535
14.2193469328
14.0809610247
13.9506323213
13.8280081062
13.7127863518
13.6047073591
13.503542899
13.4090827775
13.3211196296
13.239433374
13.1637769041
13.0938646129
13.0293582357
12.9698791194
12.9144597862
14.6873335584
14.5220792082
14.366152278
14.2190117032
14.0801687104
13.9491912974
13.8257013395
13.7093681289
13.599900251
13.497035825
13.4005316171
13.3101517759
13.2256573044
13.1467969524
13.0733008034
13.0048739805
12.9412513004
12.8818799884
14.6873731602
14.5220854576
14.3660474548
14.2186978963
14.0795351664
13.9481161411
13.8240501695
13.706992342
13.5966357128
13.4927021998
13.394932959
13.3030792941
13.216894579
13.1361276787
13.0605187532
12.9897970094
12.9237606596
12.8621002372
14.6873622042
14.5220359949
14.3659054086
14.21839882
14.0790142221
13.9473090703
13.8228914631
13.7054143013
13.5945678562
13.4900705758
13.3916601901
13.2990858066
13.2121012141
13.1304593878
13.0539093454
12.9821956842
12.9151537109
12.8526156076
14.6873340105
14.5219783801
14.3657877119
14.21820455
14.0787571354
13.9470322097
13.822664818
13.7053338381
13.594752801
13.4906591213
13.392805086
13.3009505282
13.214856784
13.1342819392
13.0589784488
12.9886938181
12.9232743876
12.8626107916
14.6873315281
14.5220595325
14.3660898898
14.219006296
14.0804960661
13.9502847377
13.8281213673
13.7137708677
13.6070006801
13.507570642
13.4152281199
13.3297056601
13.2507198796
13.1779715298
13.1111474225
13.0499243663
12.9940763164
12.9433814326
14.6876036689
14.523466646
14.3701267567
14.2278625909
14.0968888378
13.9772281953
13.868719601
13.7710464579
13.6837650736
13.6063389527
13.5381726512
13.4786387704
13.427097777
13.3829121903
13.3454573285
13.3141282692
13.2884387271
13.2677501629
14.6903437787
14.5356959383
14.4013916712
14.2891581761
14.1991806668
14.1304079949
14.0810524478
14.0489918133
14.0320288217
14.028049476
14.0351092278
14.0514676807
14.0755922691
14.1061461114
14.1419698858
14.1820590856
14.2256207203
14.2713792937
14.7129874554
14.6219970567
14.5934652488
14.622361716
14.6992715162
14.8136638892
14.9558278949
15.1176541644
15.2926864183
15.4759187163
15.6635385276
15.8526768691
16.0411917298
16.2274933817
16.4104102631
16.5890836375
16.7629647277
16.9305821268
14.872930431
15.1283329006
15.5598231898
16.1027045414
16.7087208498
17.3436312365
17.9847348296
18.6176864386
19.2335674027
19.8269583037
20.394749058
20.9353621521
21.4482301162
21.9334425279
22.3915068464
22.8231807232
23.2294792304
23.6099656293
15.8787571867
17.7247615693
19.840592558
22.0042638734
24.1254358316
26.1579168094
28.0792372482
29.8801023182
31.5578064441
33.1133703851
34.5502613608
35.8735632462
37.0893454255
38.2041762866
39.2247343889
40.1574712895
41.0085876523
41.7825227928
22.1640426097
31.146048266
39.4583724733
47.1939297838
54.4155693028
61.0936997737
67.2120300301
72.7701290666
77.7776080907
82.2543358011
86.2296205748
89.7395439229
92.823905726
95.523515212
97.8778645278
99.9227654376
101.687515408
103.186486574
68.0732998387
115.223093616
155.523060775
193.083470405
228.002658077
259.584429845
287.481850455
311.634439585
332.172560436
349.36243519
363.551486527
375.118805033
384.43920467
391.860802875
397.692061192
402.192089039
405.550769739
407.808201271
723.169781355
1065.38187543
1375.37498736
1653.9720278
1910.21857895
2136.98482293
2330.82643378
2491.30354813
2620.06420129
2719.98550591
2794.52172185
2847.2618357
2881.65431094
2900.85431593
2907.65563853
2904.47552705
2893.39977074
2875.93293113
394.580144323
155.238465025
178.252007246
155.474648357
152.284080326
150.770630497
150.455309861
151.063787389
152.312547746
153.931367892
155.70327752
157.467791657
159.110201583
160.552006341
161.743532772
162.657458655
163.283378427
163.631369347
163.7377203
163.599820353
163.218450626
162.594512172
161.725515137
160.601262671
159.197270229
157.464147452
155.298485791
152.533556916
148.211539761
465.556212477
238.520558163
177.563135273
132.024804383
102.420229059
89.6801882572
80.9806205025
74.7911314068
70.5908667563
67.7828023922
65.8851642813
64.5956459687
63.7197228164
63.1195400884
62.6944234113
62.3718699666
62.1005277889
61.8445673512
61.579550495
61.2896407776
60.968329304
60.6350106398
60.2802518016
59.9006583528
59.4978826923
59.0788483463
58.6576153829
58.2609138825
57.9436733557
57.8378019802
58.329395461
60.9561437009
525.28110251
282.648570889
225.647794156
185.099550181
139.22282399
108.46263517
90.9682100074
80.0812265142
73.892954051
70.0263545667
66.1154032881
62.3587036764
59.1151054755
56.3926032362
54.0972045099
52.1523174197
50.4979561814
49.0805643731
47.8525581967
46.7735963988
45.8104857148
44.9363827104
44.1299221821
43.3745606716
42.6580987477
41.9825328004
41.3399025788
40.7251418782
40.1363786007
39.5756846525
39.0508652571
38.5797210561
38.2007360883
38.0014011358
38.1994976976
39.4231231786
520.388920059
285.53363044
232.364867332
194.402898388
147.979494591
116.644374455
98.5564833844
86.7191798616
78.0960143612
71.8356693225
67.2440857159
63.9663483328
61.8739437537
60.3292180469
58.4073320846
56.1932903836
53.9916309354
51.9135349866
49.9759646861
48.1826698515
46.5331577118
45.0202809535
43.6323901663
42.356146195
41.1780925115
40.0854413914
39.0665446642
38.1113240376
37.2115839036
36.3646620748
35.564915397
34.8082379819
34.0924472847
33.4179751187
32.7892347513
32.2174974293
31.7273409895
31.3713124418
31.2624816307
31.6512719597
459.527036457
257.755371096
214.421223747
183.343868788
141.377802126
112.853323862
96.6827786478
86.2029718059
78.5357493945
72.8710901775
68.4077910503
64.8310111577
61.9608922968
59.6704241588
57.8928979874
56.5610026337
55.6319744301
54.8217395987
53.7081383431
52.2984548404
50.7677612408
49.2117235059
47.667218202
46.1569408455
44.697614469
43.2991099333
41.9658088761
40.6985707538
39.4960279005
38.3554002577
37.2731529933
36.245549362
35.2694543279
34.342796232
33.4627154311
32.6270522087
31.834715036
31.0862707435
30.3849849776
29.7387713894
29.1640605527
28.6932990168
28.3869497571
28.3509283002
357.103029946
203.181258966
171.827229744
149.133480897
117.594318084
95.92580535
84.046573346
76.635841741
71.3644782821
67.6068046885
64.6670855292
62.2848487636
60.3251222324
58.6711959556
57.2296818804
55.9697175465
54.8747934213
53.9386509413
53.1758095555
52.5705357455
52.0894599252
51.5813746443
50.8384803195
49.8510037024
48.716010934
47.5028030309
46.2472560553
44.9741139923
43.7029560889
42.4480626929
41.2192330251
40.0230358521
38.8636911044
37.7436665906
36.6642363312
35.6257959689
34.6286882597
33.6725353263
32.756856792
31.8813652594
31.0463038212
30.2529356209
29.504328892
28.8066785367
28.1716119451
27.6199411998
27.1851447534
26.9145849551
284.029291829
160.535940693
140.515708002
124.885375595
106.684671721
86.1621994984
71.7551043774
64.1437962788
59.828547643
57.2613475189
55.8626900887
54.9781096534
54.3767115271
53.9633646558
53.6460630635
53.3443890573
53.0354229664
52.708873447
52.3580188845
51.992776464
51.6264182647
51.2649541733
50.9181077857
50.6040972422
50.3190381254
50.0371474482
49.6721067688
49.1163090015
48.3608225681
47.4614954129
46.4672073494
45.4087525077
44.3089160533
43.1862565131
42.0553043734
40.9271171186
39.810111109
38.7106800909
37.6336562828
36.582766695
35.5606933502
34.5693389686
33.6100817794
32.6840511616
31.7923395953
30.9362750163
30.1178073753
29.3400863682
28.6083452892
27.9312411145
27.3226187412
26.8015556861
26.3903520681
271.624808026
150.715843323
129.731154531
111.200552633
87.2793910384
70.4239539999
57.738150644
50.3679625502
45.7343142273
42.8845068441
41.5665134504
41.4529619507
41.9277427213
42.7104942794
43.6649610943
44.6642313657
45.6136911384
46.47969108
47.2424688682
47.8845445052
48.4059944274
48.8120524446
49.1038081196
49.2892497537
49.3889919928
49.4216995238
49.3980799703
49.3288550863
49.2268046425
49.0903236548
48.9004031984
48.6061484609
48.1498317664
47.5263348585
46.7699569159
45.9157548243
44.9893940462
44.0110419979
42.9974785673
41.962343975
40.9165388302
39.8688066743
38.8262029618
37.794504196
36.7785911763
35.7819071135
34.8073364424
33.8573071884
32.9339361355
32.039203711
31.1751717603
30.3442803831
29.5497633698
28.7962239058
28.0903739541
27.4417438375
26.8614759953
26.3608713044
282.876381825
156.520681409
134.187326718
114.155141264
87.5225574838
70.3545808546
56.7334024823
48.0320562881
41.6739270529
36.7574497919
33.4010703211
31.5865032207
30.8919712677
30.9872591474
31.6897077133
32.8509062636
34.289353917
35.8589823852
37.4755284983
39.0702504953
40.5853004778
41.9916172967
43.2707503483
44.4037732306
45.3814097996
46.2098584073
46.8969205665
47.4468848331
47.8692403582
48.1813816495
48.3994796897
48.5342210659
48.5948622784
48.5898124904
48.5179976376
48.3661219581
48.1038208761
47.6995935444
47.1516127819
46.4825311292
45.7182399163
44.8800441718
43.9856168006
43.049984332
42.0856867339
41.1030538827
40.1106205307
39.1155112017
38.1238310627
37.1407798074
36.1700040972
35.2149253957
34.27852194
33.3634613687
32.4722399375
31.6073557191
30.7715322299
29.9680115984
29.2009149648
28.4756111923
27.7988811509
27.1773959748
26.6176886788
300.040842462
166.119973307
142.347270037
121.208714709
92.9852619395
75.0349873957
60.5348330767
51.0508730093
43.838949063
37.8497324865
33.1601921754
29.797585207
27.4459808128
25.8503481674
24.9407306343
24.7140586554
25.0949012081
25.9572189508
27.1844827526
28.6815088197
30.3590806151
32.1362121439
33.9581028618
35.7753660886
37.5345673979
39.1942205883
40.7331100801
42.1360262723
43.3881145746
44.482824341
45.4243585765
46.2192832712
46.8730358515
47.3945722841
47.7974779208
48.094797936
48.2961149025
48.4092158496
48.4399817307
48.3878498031
48.244064415
47.9906355409
47.6104915704
47.1041020604
46.4875198527
45.7804806414
45.0007458319
44.163771949
43.2830060073
42.3699236241
41.4341964497
40.4839867071
39.5262889824
38.5673278017
37.6119536286
36.6640238219
35.7271920206
34.8046998377
33.8994931972
33.0143386779
32.1519610419
31.3152103825
30.5072641905
29.7318410987
28.9933443717
28.296764156
27.6462182921
27.0463144356
321.191522144
177.845337542
152.321705837
129.899412202
99.9630527384
81.0674942749
65.6559485746
55.5176393385
47.7365315139
41.17341689
35.8845900468
31.8895706054
28.8518178695
26.4355325958
24.4960053526
23.0166504848
21.9942656359
21.4149511469
21.2710289705
21.5616530209
22.2613475884
23.311581748
24.6560526214
26.2406762024
28.0028041729
29.8735603625
31.7923276491
33.7144226742
35.598628113
37.4035231302
39.0977503825
40.6634141474
42.0882690732
43.3621864973
44.4812168757
45.4485336527
46.2698557506
46.9511568216
47.5007491414
47.9296029337
48.2484077514
48.465632873
48.5879877238
48.6201097683
48.5621298232
48.4087722311
48.1497266465
47.7761600969
47.2900223889
46.7034286796
46.0318791973
45.2902872954
44.4921763506
43.6495881268
42.7730154182
41.8714780663
40.9527345234
40.0235973221
39.0902415689
38.1568858824
37.2276850239
36.3063443547
35.3962089008
34.5003490606
33.6216562919
32.7629517275
31.9271116053
31.1172026032
30.3365988444
29.5889925827
28.8781914252
28.2068504789
27.5789511189
350.807586651
196.035823274
173.110998035
161.193085228
140.542625873
108.546416622
88.1338002739
71.497354751
60.5933028217
52.1996143957
45.0696142535
39.2729429696
34.85871883
31.4780311372
28.7370065063
26.4414019238
24.5345141711
22.9781702429
21.7236122652
20.7230924272
19.9616028112
19.4535319653
19.2258850519
19.3127277348
19.7420581173
20.5205844507
21.6253129117
23.0138657891
24.6402490245
26.4513139817
28.3850394587
30.3786398831
32.3793235654
34.346998408
36.2472763101
38.0490006588
39.728984554
41.273270981
42.6729408201
43.9219222736
45.0186760266
45.966449959
46.7707525147
47.4378902206
47.9757133545
48.3935649476
48.7005706537
48.9043325625
49.0108809656
49.0243279841
48.9455790442
48.771960323
48.4980286038
48.1197915549
47.6401067653
47.0686104984
46.4178058374
45.7003156352
44.9279863234
44.1116061853
43.2607637425
42.3838561263
41.4882543113
40.5805965139
39.6666081265
38.7503032617
37.8358506455
36.9269735752
36.0270494858
35.1391927374
34.2663380632
33.4113284356
32.5770091503
31.7663163673
30.9823313692
30.2282182067
29.5069996445
28.8205018446
28.1726531706
379.873530527
212.183929269
187.296249769
174.670452365
152.880276883
118.858710824
97.3673021834
79.8786552345
68.7206160324
60.4149155488
53.2396831724
46.6884496627
41.1496187462
36.840472711
33.4901238404
30.7301094179
28.3759351412
26.3781414912
24.7034986372
23.3010341852
22.1032889636
21.0632535399
20.1573084411
19.3773122673
18.7302698617
18.2322322855
17.9109611737
17.8055529702
17.96181586
18.4265199172
19.2309735898
20.373440892
21.8171237038
23.5054093445
25.3777729305
27.3738422396
29.4345265629
31.5063075537
33.5458273655
35.5200016219
37.4018794313
39.1688149933
40.8043244269
42.2984482887
43.6454727561
44.842518423
45.8900910336
46.7919789033
47.5538439921
48.1822138597
48.6846398583
49.0694688471
49.3448176093
49.5176659453
49.5936320888
49.5766793872
49.468437488
49.2681385872
48.9734670336
48.5833300436
48.1011057409
47.5347802148
46.8946726591
46.1915527142
45.4358144659
44.6371238664
43.8042346728
42.9449560048
42.0663052707
41.1748489487
40.27523222
39.3718421051
38.4687407461
37.5696079015
36.677806094
35.7964485587
34.9284683626
34.0766901429
33.2438998734
32.4329017847
31.6465329547
30.8875658458
30.1585050777
29.4607228065
28.798321341
413.225527998
231.53042203
206.233477745
198.585826982
190.041044896
167.373893003
130.198402063
106.921071921
87.9064718985
75.8672705743
66.9143122189
59.1450426749
52.0143355491
45.9815246518
41.3381126109
37.7915870104
34.8889503449
32.3451866054
30.073513064
28.0870715975
26.3894437693
24.9469238751
23.6962480141
22.5875862068
21.5924017331
20.6946806978
19.8868963999
19.1582608107
18.4983931403
17.904323154
17.3861095678
16.9705078576
16.6985853839
16.6237118955
16.8070275054
17.3067475343
18.1610289768
19.370248534
20.8943430277
22.6682510857
24.6216545958
26.6904132451
28.8183655524
30.9558971872
33.0607789543
35.0994666012
37.0463646792
38.881474876
40.5889438507
42.1577033183
43.5813858037
44.8571015211
45.9844495966
46.9655762294
47.8049358788
48.508448474
49.0827964512
49.5353116719
49.8737099267
50.1054281518
50.2369968619
50.2737788621
50.2197438619
50.0771292033
49.8465240323
49.5276291585
49.1211014815
48.6305776993
48.0628795541
47.426687307
46.7312573911
45.9857257724
45.1987506332
44.3783139022
43.5316775054
42.6655351879
41.7860179179
40.8972746637
40.0037254178
39.1093614657
38.2178130701
37.3324093635
36.4562390107
35.5922095133
34.7431061659
33.9116444187
33.1005050089
32.3123259174
31.5495918104
30.8144716318
30.1081083752
29.4348411763
444.968749505
248.914622021
221.503291109
213.452256377
204.724546964
181.065200434
141.810136096
117.527995965
97.536681073
85.0910836405
76.1524991266
68.6693304266
61.6325752394
54.8411501901
48.9330943718
44.3096362355
40.7511003488
37.8175005992
35.2216191514
32.8787801501
30.8163505967
29.0543963714
27.5595113406
26.2560717708
25.0786473789
23.9927577058
22.9871633511
22.0592907576
21.2086563812
20.4254317181
19.6951077978
19.0062609712
18.3541907823
17.7407576067
17.1688232601
16.6426383222
16.1740997241
15.7900994077
15.5378220907
15.4843183456
15.7077423313
16.2767342132
17.2254280986
18.5414431272
20.1737166931
22.0508303203
24.0983984387
26.2496831836
28.4488642939
30.6499266946
32.8142453946
34.9100901074
36.9126202339
38.8030688637
40.567362633
42.1950751058
43.6794614104
45.0172475337
46.2078920494
47.2529289573
48.1557904221
48.921553821
49.5563820167
50.0670332638
50.4606479855
50.7444982509
50.9255205603
51.0098917214
51.0027839315
50.9082073642
50.7288516006
50.4662407837
50.1213598945
49.6959072963
49.1935990116
48.6203847987
47.9836776437
47.2914849056
46.551850272
45.7725252167
44.9607778528
44.1233724454
43.266765431
42.396147669
41.515741665
40.6298485062
39.7423698052
38.8568690739
37.9766259595
37.1046883363
36.2439236071
35.3970664354
34.5667591613
33.7555716729
32.9659827009
32.2002684441
31.4603884642
30.747392789
30.0658462985
480.133276343
267.550353482
237.489086663
228.751094444
219.575214435
194.624439098
153.029268516
127.76527665
106.636933574
93.5019597712
84.0524669807
76.1003412151
68.5662013507
61.2394484512
54.8361298335
49.8391364217
46.0544092919
42.9944654163
40.2947021946
37.7750169511
35.41745669
33.292531599
31.4506592836
29.8769233702
28.4993460632
27.2494122116
26.090900724
25.0156111816
24.0264615717
23.1233569343
22.2918308589
21.5117646477
20.7676230622
20.0519997114
19.3644478804
18.7082341414
18.083185863
17.4853806443
16.911094551
16.3603917051
15.8380476199
15.3528446492
14.9201305754
14.5692005336
14.35192445
14.3461777764
14.6437816325
15.3193014729
16.3983484635
17.8517033318
19.6143375859
21.6085912349
23.7588831988
25.9987890816
28.2733390222
30.5383297887
32.7584196676
34.904922978
36.9549579454
38.8909969475
40.7001664079
42.3733479032
43.9044553767
45.2902187942
46.5299548033
47.625049235
48.5785317947
49.3948245428
50.0795109394
50.6389302832
51.0798340705
51.4091570675
51.6338005019
51.7602908863
51.7944814037
51.7413607387
51.6049441704
51.3882146378
51.0932986002
50.721969748
50.2765154873
49.760606252
49.1794995257
48.5395984093
47.8478671322
47.1113973608
46.3371234511
45.5316553004
44.7012981237
43.8521857899
42.9885465146
42.1148643793
41.2352672335
40.3535435257
39.4731741616
38.5973750022
37.7291404854
36.8712871045
36.026492426
35.1973263062
34.3862614106
33.5956504283
32.8276217926
32.0840129302
31.3658644509
30.6779275951
524.127722406
290.740377841
258.042825491
250.467715475
247.81687372
239.452162412
212.077589206
166.22274863
139.290738123
116.617616794
102.606329783
92.5447385313
84.035232662
75.9011855682
67.9179711108
60.8854136055
55.3717752446
51.2095591513
47.8620893851
44.9090887568
42.137859944
39.5243148728
37.1580055607
35.1168134127
33.3938509105
31.9021405303
30.5473994184
29.2679073813
28.0427182072
26.8806802155
25.8000665237
24.8102587752
23.8992069324
23.0458828623
22.2342455192
21.4582971803
20.7198433929
20.0220300708
19.3619197567
18.7321103017
18.125304031
17.537434796
16.9684256332
16.4203862199
15.8943705284
15.3896121314
14.9056530987
14.4450499452
14.0157407445
13.6345612388
13.3341377394
13.172990303
13.2399849975
13.6378988413
14.4431062772
15.6709102221
17.2766484997
19.18275848
21.3048440492
23.5656799944
25.8996571317
28.2532660732
30.5840396657
32.8587635137
35.0515980521
37.1423089618
39.1153467724
40.959301115
42.6663067105
44.2313945217
45.6519928648
46.9276445352
48.0597890237
49.0513824421
49.9065983103
50.6305947371
51.2293149983
51.7091865725
52.0768671397
52.3390468938
52.5022650473
52.5726601305
52.5557591294
52.4563324406
52.2783312465
52.0248778346
51.6984432876
51.3012439014
50.8358563598
50.3058163452
49.7158018737
49.0713879258
48.3786567855
47.6438668925
46.8732147735
46.0727046036
45.2482110691
44.4051892816
43.5476276359
42.6798924224
41.8059742831
40.9295415936
40.0539790759
39.1824250247
38.3178089077
37.4628870553
36.6202752926
35.792472515
34.981866517
34.1907106415
33.4210312857
32.6746033924
31.9525095957
31.2596447444
600.780847619
330.177985716
291.460582768
282.178377117
280.397407594
278.397371709
268.04040553
235.666685083
183.215531608
154.818207514
130.56736643
115.675398433
105.229241477
96.7431890085
88.9421548661
81.0604370848
73.0312614482
65.7977348138
60.0637824976
55.7235683767
52.2311815209
49.1275707743
46.1715416692
43.3336603866
40.7259462275
38.4607718842
36.5492413554
34.9001206882
33.4012809728
31.9770319718
30.6033433689
29.2975937696
28.0915408493
27.0002350986
26.0070118512
25.0799624827
24.1916766033
23.3293288464
22.4942595343
21.6960089544
20.9429192026
20.2343435732
19.5631597849
18.9220606918
18.3074107916
17.719499038
17.159800124
16.6274362406
16.1191191533
15.6310557131
15.1606061761
14.7070347138
14.2707939424
13.8523811586
13.4520807425
13.0716427106
12.7173476876
12.4049554795
12.1684370404
12.0719534963
12.2156786571
12.7146602342
13.6488380369
15.0253696337
16.7862805713
18.8422241637
21.1010260861
23.4815223499
25.9172557732
28.3555769838
30.7555885001
33.0860620937
35.3234391205
37.450127189
39.4530765172
41.3229098222
43.0533721526
44.6408426215
46.0838453417
47.3826827088
48.5391782749
49.5564845221
50.4388039409
51.1911682935
51.819251301
52.329205648
52.727439714
53.0204341383
53.2145755245
53.3160155419
53.3304882154
53.263160861
53.1185341735
52.9004083087
52.6119088831
52.2556461834
51.8340334922
51.3497323496
50.8060789394
50.2072445991
49.5581076044
48.8639953475
48.1304350629
47.3629569185
46.5669979224
45.7480669971
44.9105488554
44.0588203985
43.1969675297
42.3287878761
41.4578039028
40.587286788
39.7202838828
38.8596486248
38.0080692195
37.1680953904
36.3421567405
35.5325659248
34.741497964
33.9709103343
33.2225553301
32.497587294
31.801012572
1046.95052838
580.631064384
516.081377713
499.210502078
489.461328402
462.653483782
389.60217181
283.033588782
230.141921807
183.912281636
157.413279257
140.219738189
127.284151041
116.329716195
106.060535004
95.6537494301
85.1728728059
75.9030251976
68.7185657897
63.4834897576
59.4882616414
56.0901342555
52.8983897699
49.7335483918
46.6181386345
43.7112243324
41.1674324435
39.0263628883
37.1933795395
35.5328252618
33.9498405052
32.4137331977
30.9468374282
29.5927516286
28.3751539603
27.2787164955
26.264868075
25.2999095478
24.3686617547
23.4741494704
22.6293328511
21.8437373673
21.1141584646
20.4284728414
19.7739080655
19.1429434544
18.534301416
17.9512355795
17.3974785501
16.8734993545
16.3765557875
15.9030698067
15.4505222875
15.0180728738
14.6056039987
14.2122845971
13.8362749728
13.4754073682
13.1279588535
12.7931011101
12.4707806047
12.1616051925
11.8673704397
11.593426399
11.3537117366
11.1801269417
11.1366778772
11.3286060176
11.8824044318
12.8894922763
14.3606846936
16.2333349136
18.4094751351
20.7881665547
23.2814019195
25.8184420174
28.3447795701
30.8193547695
33.2117461058
35.4998194699
37.667782755
39.7046478515
41.6030408793
43.3584243834
44.968585958
46.4332322246
47.753610664
48.932223598
49.972618735
50.8792270187
51.6571562096
52.3120283415
52.8498298206
53.2767883935
53.5992080405
53.8233320102
53.9552162273
54.000618917
53.9648696386
53.8527679235
53.6685135071
53.4156997215
53.0973547448
52.7160898209
52.2743535339
51.7747692178
51.2204518324
50.6151467754
49.9631678877
49.269224915
48.538235928
47.7751624029
46.9849068058
46.1721596077
45.3414744722
44.4969245726
43.642352387
42.7813632041
41.9173280952
41.0533969711
40.1925183632
39.3374616812
38.4908406646
37.6551346127
36.8327040583
36.0257921502
35.2365090914
34.4667635172
33.7183062578
32.9923715139
32.2940521692
1305.6144048
721.908231924
639.365554553
612.441407415
580.972163816
502.250946382
379.23977792
309.996634111
252.526747662
217.474140854
193.126275916
173.568152398
155.724427498
137.823199385
120.004209615
104.597664594
92.7909708439
84.3506383449
78.1233162661
73.0679800988
68.5422662782
64.1827406315
59.8419710788
55.5969920866
51.6740736229
48.2807403376
45.4778898209
43.14619185
41.097459078
39.1813896737
37.3149104593
35.4840492461
33.7262951919
32.0995377873
30.6384927865
29.3308877121
28.1327266192
27.0039207833
25.9248506896
24.8967104534
23.9331707943
23.0447854897
22.2287847136
21.4710855888
20.7566109811
20.0760912352
19.4273421245
18.8131459415
18.2363728561
17.6957211311
17.1861567707
16.7017015433
16.2379684141
15.7930436804
15.3671479733
14.9611642807
14.5750284084
14.2074161946
13.8564594794
13.5205762958
13.1988513362
12.8907598054
12.5956238539
12.3123768139
12.039796195
11.7768675416
11.5230769926
11.2785771093
11.0446520232
10.825082825
10.6298546934
10.4831318199
10.4373344478
10.5886141373
11.0708361443
12.00453672
13.4329605341
15.3087099149
17.5304170159
19.9846024178
22.5696372695
25.2038461001
27.8253351579
30.3887983856
32.8618368898
35.2217880088
37.4532553659
39.5462142993
41.4945886503
43.2952060265
44.9470965279
46.4510273973
47.8091518084
49.0247063198
50.1017832411
51.0451560228
51.8601485358
52.5524808076
53.1281437017
53.5932868838
53.9541211633
54.2167991505
54.3873139252
54.4714001415
54.4744530272
54.4014350266
54.2568050415
54.0444788926
53.7678351258
53.4297711382
53.0328336062
52.5794320504
52.0721017093
51.5137482981
50.9077687113
50.2580271006
49.5687389996
48.8443297739
48.089297371
47.308104262
46.5049657141
45.6842154759
44.8497344028
44.0051693185
43.1539597172
42.2993412032
41.4443530261
40.5918522092
39.7445301483
38.9049315537
38.0754718894
37.2584512148
36.4560556198
35.6703470974
34.9032059881
34.1563985244
33.4312438435
32.7328503709
1643.75233365
907.914472335
804.022370841
769.411484108
728.381465084
627.223337963
470.601575011
382.790334386
309.982524039
265.184875261
233.451969196
207.091729128
182.337969133
158.503856458
137.946346223
122.165734288
110.566735852
101.530160896
93.7758987507
86.54924286
79.5330029196
72.8193250587
66.7427369644
61.5833451605
57.4209752375
54.0664222325
51.2238529659
48.6491635385
46.18380425
43.75466095
41.3693771815
39.0924926004
37.0073755817
35.1632798617
33.5432658639
32.0842695421
30.7231226696
29.4188683987
28.1583341196
26.9504363982
25.8163984595
24.7722311769
23.8173906887
22.9363512532
22.1116376208