/*--------------------------------*- C++ -*----------------------------------*\
| =========                 |                                                 |
| \\      /  F ield         | OpenFOAM: The Open Source CFD Toolbox           |
|  \\    /   O peration     | Version:  2.3.1                                 |
|   \\  /    A nd           | Web:      www.OpenFOAM.org                      |
|    \\/     M anipulation  |                                                 |
\*---------------------------------------------------------------------------*/
FoamFile
{
    version     2.0;
    format      ascii;
    class       volScalarField;
    location    "300";
    object      k;
}
// * * * * * * * * * * * * * * * * * * * * * * * * * * * * * * * * * * * * * //

dimensions      [0 2 -2 0 0 0 0];

internalField   nonuniform List<scalar> 
10011
(
0.773329970359
1.11759145347
1.35500170576
1.50536827407
1.59453744494
1.643238418
1.66624525787
1.67359010166
1.67191531557
1.66558572887
1.65751281936
1.64973898448
1.64386203514
1.64135792131
1.64188717641
1.64489915956
1.64809584058
1.72071198253
0.492772079307
0.515726736919
0.519700256482
0.518737237755
0.515087545635
0.509862327887
0.504019490681
0.498230502332
0.492897402744
0.488220760323
0.484253511289
0.480929980302
0.478062282644
0.474876193217
0.471513445295
0.467381500411
0.458505114686
0.439903064234
0.412179188458
0.424399999778
0.422229363781
0.414565555364
0.404645504765
0.393872142168
0.382989821228
0.37242683378
0.36243111873
0.353135300299
0.344591566894
0.33679029512
0.329708703109
0.323444673366
0.318021812077
0.313257993043
0.309035293858
0.305612232361
0.381902971814
0.38599436585
0.386374510601
0.383983414965
0.379837693136
0.374656713604
0.368920299278
0.362951695189
0.35697290114
0.351141173755
0.345580353026
0.340405162422
0.335678765947
0.331499660387
0.328035124967
0.325590657133
0.324725019905
0.326098405801
0.37524680048
0.375549149012
0.37500791122
0.373551567655
0.371341554402
0.368577035544
0.365444070294
0.362100267294
0.35867596011
0.355285050198
0.352026812846
0.348988919029
0.346281989088
0.344060028512
0.342560071935
0.342151292279
0.343294988683
0.3459343553
0.373465970959
0.372232397595
0.370965912851
0.369480443561
0.367748644587
0.365806006553
0.363711514022
0.3615324023
0.359338633918
0.357199919943
0.35518907375
0.353392418316
0.351923074979
0.350939575841
0.350667332766
0.351404715007
0.353407482909
0.356276156073
0.372978198999
0.371128384942
0.369432476448
0.367785579249
0.366140069688
0.364482543557
0.362820981125
0.361179558626
0.359594006144
0.358108851495
0.356780906579
0.355684708451
0.354920706351
0.354624544392
0.354971222821
0.356155066828
0.358266247104
0.36082842735
0.372862113504
0.370815084865
0.368937569577
0.367179467513
0.365509645311
0.36391212897
0.362383694318
0.360934474729
0.359585943314
0.358371037113
0.357335940389
0.356543632125
0.356078182418
0.35604749077
0.356578283164
0.357788850538
0.359687306063
0.36183786491
0.372824032992
0.370699876526
0.368735729241
0.366908714275
0.365202914796
0.363608819361
0.362123446144
0.360752193096
0.359510225363
0.358423179554
0.357528629183
0.356878193712
0.356539145643
0.356593218339
0.357127713729
0.358208792365
0.359803869551
0.361536440799
0.37280898741
0.37065097698
0.368641608365
0.366770335044
0.365030520455
0.363419234378
0.361936511777
0.360587600527
0.359384811526
0.358348628164
0.357508819045
0.356905373812
0.35658820145
0.356613736422
0.357035267628
0.357880964001
0.359099738842
0.360388845211
0.372802755881
0.370629546293
0.368596991312
0.366699196546
0.364933158323
0.363298948577
0.361798877948
0.360438734999
0.359229208589
0.358186762826
0.357334187327
0.356700590455
0.356320013122
0.356227450769
0.356450644085
0.356994585763
0.357806569818
0.358658528785
0.372800235386
0.370618958777
0.368572796969
0.366657602493
0.36487112845
0.363213855041
0.361688392499
0.360299978634
0.359057281876
0.357972825653
0.357062984063
0.356347358264
0.355847029918
0.355581079117
0.355560756858
0.355779918799
0.356193818988
0.356639359011
0.372799885106
0.370613514177
0.36855764408
0.366628834376
0.364824714643
0.363145056211
0.361591515319
0.360167769508
0.358879860037
0.357736263839
0.356747560881
0.355925585295
0.355281838323
0.354824957833
0.354557141426
0.354468843659
0.35452646312
0.354617952773
0.372801191518
0.370611444025
0.368547926253
0.36660733721
0.364786963391
0.363085615156
0.361503599817
0.360042717916
0.358706331501
0.357499243993
0.35642727301
0.355496470785
0.354711939
0.35407623342
0.353587413874
0.353236321398
0.352999699764
0.352802895234
0.372803753291
0.370611917882
0.368542384491
0.366591584745
0.364756351378
0.363034579093
0.361425287911
0.359928575531
0.358545552046
0.357278147672
0.356128726212
0.355099495764
0.354191734591
0.353404883833
0.352735575183
0.352176290327
0.351711793712
0.351293649087
0.372807008102
0.370614060432
0.368539981484
0.366580684493
0.364732471405
0.362992440062
0.361358549539
0.359829559371
0.358404915818
0.35708455531
0.355868600681
0.354756959044
0.353748853611
0.352842337239
0.352033832347
0.351317490647
0.350683728099
0.350102137189
0.372810165411
0.370616693824
0.368539285409
0.366573243467
0.364714327414
0.362958984559
0.36130438188
0.359748335403
0.358289187225
0.356925630153
0.355656477925
0.354480395718
0.353395617842
0.352399682759
0.351489213174
0.350659627381
0.349905056914
0.349207346898
0.372812247222
0.370618358315
0.368538489427
0.366567409741
0.364700441748
0.362933583645
0.361263495973
0.35968741876
0.358203052851
0.35680840489
0.355501605956
0.354280717327
0.353143545516
0.35208747972
0.351109376567
0.350205446194
0.349372031369
0.348598668951
0.372812930813
0.370618466954
0.368536665655
0.366561925105
0.364689318063
0.362914615342
0.361234215883
0.359645058849
0.358144510799
0.356730223541
0.355399976771
0.354151526454
0.352982467741
0.351890123822
0.350871477745
0.349923151916
0.349042702737
0.348224159497
0.372812736988
0.370617591544
0.368534143275
0.366556579484
0.364679923833
0.362899895509
0.361212786818
0.359615391134
0.358104898553
0.356678755287
0.355334524874
0.354069763749
0.352881916475
0.351768230968
0.350725717979
0.349751177915
0.348842814705
0.347997300223
0.37281223228
0.370616479679
0.368531669616
0.366551999757
0.364672688328
0.362889535788
0.361198799468
0.359597176934
0.35808170205
0.35664960601
0.355298202165
0.354024792949
0.35282659206
0.35170066333
0.350643899964
0.349653081646
0.348726697834
0.347863084824
0.37281195895
0.370616427702
0.368531797144
0.366552723736
0.364674847877
0.3628939372
0.36120593374
0.359607066221
0.358093779042
0.356662648319
0.35531033708
0.354033555107
0.352829014045
0.351693388984
0.350623309759
0.349615426901
0.348668373739
0.347781723521
0.372813583917
0.370623742668
0.368549053464
0.366584813265
0.364725913384
0.362966145657
0.361299120832
0.359718787081
0.358219529492
0.35679622061
0.355444242853
0.354159441464
0.352938039191
0.351776546801
0.350671703417
0.349620483385
0.348622134429
0.34767830948
0.372827726434
0.370676248699
0.368660731321
0.3667693289
0.364986306409
0.363294963054
0.361680930743
0.360133022412
0.358642916891
0.357204665466
0.355814159328
0.3544685989
0.353166048181
0.351905104404
0.350684686675
0.349503940197
0.34836431946
0.347271267836
0.372923697626
0.37097393242
0.369206446019
0.367554790784
0.365964136419
0.364397387706
0.362834470889
0.361267223079
0.35969459554
0.35811945391
0.356546538442
0.354981196556
0.353428666872
0.351893724803
0.350380557747
0.348892764882
0.347435552755
0.346020658332
0.373481355079
0.37238341781
0.37137729506
0.370242983879
0.36889863383
0.367338744977
0.365593195266
0.363701676874
0.361702161222
0.359627380371
0.357504356613
0.355354925677
0.353196555288
0.351043173481
0.348905916513
0.346793761375
0.344716023527
0.342690259357
0.376467291786
0.378249613766
0.378882534822
0.378248682238
0.376643576247
0.374369069201
0.371646675186
0.368629443268
0.36542288757
0.362101138172
0.358717686906
0.355312124003
0.351914352375
0.348547281223
0.345228615216
0.341972085446
0.338789707507
0.335703640996
0.392537948754
0.401174047229
0.401931830774
0.399251214885
0.39502757027
0.390056623579
0.384715402734
0.379200769628
0.373628248648
0.368074765384
0.362596352783
0.357235523999
0.352024688198
0.346988021475
0.342142641718
0.337499313431
0.333063033224
0.328845215606
0.438449312081
0.4500186415
0.451120318441
0.449975106813
0.448326345129
0.446464465446
0.444471611681
0.442390950534
0.440255025631
0.438097026395
0.435951145347
0.43384920328
0.43181797102
0.42987779716
0.428041747492
0.426313630719
0.424679235782
0.423089501174
0.544762696337
0.705316523693
0.836234254878
0.94565488874
1.04096464159
1.12179872444
1.18865001933
1.24260153769
1.28505634843
1.31752456155
1.34148590984
1.35831200531
1.36922876982
1.3753045534
1.37745397661
1.37645003064
1.37294913432
1.36741864653
0.397637995922
0.377102323149
0.34642166311
0.334374760049
0.328292385397
0.325470603702
0.324689826285
0.325339983715
0.32692093713
0.329003347471
0.33125991718
0.333458291875
0.335439213302
0.337098791962
0.338375377077
0.339238724645
0.33968125289
0.339717364278
0.339410217229
0.33875881834
0.337766197708
0.336434882482
0.334762069191
0.332733661299
0.330315082473
0.327436265907
0.323950401912
0.319618615966
0.313082097731
0.434494517009
0.417291246793
0.413340720258
0.393158973703
0.404313950894
0.41744823362
0.42416940296
0.429782801843
0.435880313939
0.441863536808
0.447077040307
0.451235825771
0.454246780459
0.456093935448
0.456812181836
0.456475313009
0.45518014272
0.453032775105
0.450139863891
0.44660509544
0.442531672165
0.4380129005
0.433102294054
0.427850942965
0.422305878741
0.416508874132
0.410496799545
0.404305493468
0.397987995717
0.391671377646
0.38580058491
0.38275257956
0.455856701628
0.437789892186
0.429015977897
0.434179089862
0.423989991611
0.446668889462
0.479070481064
0.515014502165
0.550539765292
0.57630750736
0.587351892305
0.59076468103
0.591275550261
0.590224806994
0.587974540039
0.584789029326
0.580866231929
0.576321767848
0.571225097196
0.565629830047
0.559585273871
0.553139575938
0.54634107364
0.539242014258
0.531916916329
0.524386004357
0.51668125118
0.508833035537
0.50087145572
0.492827792006
0.48473827261
0.476653753601
0.468666740515
0.460974628739
0.454029460804
0.449509092643
0.450165740722
0.438163325207
0.434621609394
0.44422855285
0.43555228661
0.456391815043
0.484015272606
0.521249737206
0.56285662671
0.60190790759
0.636306568987
0.66673264327
0.693215347555
0.71209023506
0.719551604777
0.71928020161
0.715292655293
0.709278680126
0.701908354298
0.693626721747
0.684754366045
0.67549226245
0.665961581298
0.656239686355
0.646379392869
0.63641923684
0.626391025838
0.616330032517
0.606287485546
0.596242245644
0.586211945108
0.576213704341
0.566265870857
0.556390726286
0.546619745266
0.53700453699
0.527641282783
0.51871653275
0.51057286741
0.504247010214
0.410877292577
0.406061748243
0.408832172852
0.423694774289
0.422243102694
0.451152307159
0.486756482948
0.530997928512
0.577838820127
0.619844969245
0.655337315548
0.687936984363
0.718605569242
0.746018545034
0.770007279423
0.790684614799
0.807987813026
0.819672842938
0.823212663938
0.820321929568
0.813736064966
0.804949094081
0.794679265796
0.783411868528
0.77150863617
0.759218405183
0.746707407443
0.734089254752
0.721443327391
0.708826276562
0.69628254072
0.683860249143
0.671585062222
0.659435898725
0.647430177083
0.63558272663
0.623908875858
0.612428047813
0.601169489982
0.590182304824
0.579553985558
0.569437892161
0.560069136746
0.55208997944
0.346513919477
0.345172004201
0.350657144882
0.365911693489
0.369168748784
0.403219931071
0.446688681585
0.500360224775
0.558143254259
0.611700912589
0.657733014467
0.699166450524
0.736698767776
0.769062119383
0.796679729946
0.821020055385
0.842677039563
0.861603993979
0.877922622408
0.891575997718
0.902270544908
0.908517324352
0.908752981327
0.903808519769
0.895462224812
0.884910824821
0.872829026122
0.859688726813
0.845850378235
0.831576919738
0.817056355819
0.802425144899
0.787783919767
0.773208505957
0.758761895256
0.744515155952
0.730447716395
0.716581485366
0.702935976981
0.689528750034
0.676377406982
0.663502931842
0.650934963328
0.638719967717
0.626933729229
0.615695100358
0.605158042476
0.595742139439
0.299005523737
0.293016389936
0.293317567246
0.292997485319
0.296307731936
0.29152194776
0.315265047133
0.355026235858
0.410847456737
0.477054473239
0.543920674276
0.605124475742
0.661779258911
0.713902284051
0.75970345718
0.799056737164
0.833244103177
0.862882207642
0.888117420595
0.909594482547
0.928060861104
0.943863172109
0.95716798296
0.968120365068
0.97666782439
0.982500113367
0.98463889669
0.98214626007
0.975463392404
0.96574750827
0.953920135766
0.940577784054
0.926156862904
0.910998083505
0.895360295155
0.879437368749
0.863376162954
0.847289683616
0.831267744148
0.815389912396
0.799719624167
0.784245996814
0.76900414752
0.754021930551
0.739323146301
0.724930344872
0.710868209631
0.697168136864
0.683874409381
0.671051647791
0.658789620476
0.647186648463
0.636540139575
0.293598496388
0.284878401355
0.282390647532
0.275756478025
0.263763051899
0.237813049885
0.22717692511
0.229743891158
0.246841159701
0.283571710676
0.339546922639
0.407354012204
0.478569958718
0.550592214224
0.620882065425
0.685783582155
0.743668861118
0.795134434689
0.840528521098
0.879816092903
0.913487309705
0.942291132291
0.966698986629
0.987117687522
1.00413295317
1.01827592963
1.02983631381
1.03901342994
1.04594086545
1.0505867099
1.05269947245
1.05165164728
1.04689380181
1.03869088098
1.02781429009
1.01496658593
1.00065914665
0.985284979992
0.96915819105
0.952525113832
0.935576758114
0.918462503986
0.901301217296
0.884192142858
0.867233880462
0.850443831571
0.833857516232
0.817514764299
0.801449251184
0.785690458117
0.770265994215
0.755204519499
0.740539422547
0.726313117824
0.712580723831
0.699409659847
0.686862367847
0.675171207669
0.302691315159
0.293669650575
0.290718001698
0.282815636086
0.266955802768
0.233990957069
0.210465772695
0.19656792485
0.189577140027
0.19122117779
0.204162717792
0.229488272492
0.266885923413
0.317714864667
0.382283005507
0.456865559592
0.534674836281
0.610536329773
0.682291487898
0.748564887233
0.808218733497
0.860994770782
0.907298056106
0.947463638569
0.981843477287
1.0110137848
1.03557928291
1.05598835219
1.07268355362
1.08616766914
1.09687300261
1.1050741804
1.11097003002
1.11468569113
1.11621126701
1.1153699862
1.11177197451
1.10510665966
1.09555676715
1.08365486542
1.06993900875
1.05484091944
1.03870899008
1.02182887641
1.00443086821
0.98669870806
0.968779912801
0.950795437544
0.93285052268
0.9150382285
0.897369549435
0.879898844361
0.862671746624
0.845727281251
0.829099881753
0.812821580757
0.796924497449
0.781443687933
0.766419868379
0.751900503764
0.737936792058
0.724569284647
0.711996893202
0.315316567581
0.306469242989
0.303597731741
0.295620078842
0.279132707426
0.244630774397
0.218376593469
0.200956212283
0.188273357792
0.179416089861
0.174535993621
0.174139718081
0.178360615485
0.189283070003
0.210647978912
0.245675034822
0.294742558368
0.356083131032
0.426968540793
0.504066796181
0.583320729919
0.660773034179
0.733862556901
0.801326863615
0.86240113973
0.91673468033
0.964455504289
1.00594445218
1.04156703725
1.07175780969
1.09706050666
1.11800689398
1.13503407338
1.14857003628
1.15905026463
1.16684720222
1.17222245374
1.17536927816
1.17640849613
1.17535269768
1.17209291282
1.16639820743
1.15810514431
1.14735604786
1.13453346731
1.12005448086
1.10428131345
1.08751991607
1.07002791412
1.05201838185
1.03366567243
1.01511314522
0.996482038292
0.97788491942
0.959381617726
0.941008950654
0.922825891652
0.904882067127
0.88722041887
0.869879186492
0.852893866563
0.836299264052
0.820131600076
0.804430032596
0.789236080718
0.774589710091
0.760518961186
0.747206138344
0.330593410788
0.321781935486
0.318946292882
0.310910467631
0.294036269664
0.25862030005
0.231252547786
0.212811375927
0.198899482644
0.188134727522
0.180070063647
0.174629330595
0.171066642235
0.169477644779
0.1706393716
0.175600648682
0.185558484718
0.202524315307
0.229630486911
0.270097613069
0.325022122192
0.392183657586
0.467591123013
0.547180237925
0.627503053595
0.705687796899
0.779600996437
0.847989755682
0.910211468209
0.965920147979
1.01508698736
1.05796375969
1.09493166805
1.12637978503
1.15275003299
1.17453823522
1.19222297743
1.20622230241
1.21693503887
1.22474525494
1.22998207485
1.23289321094
1.23366287483
1.23241033649
1.22916894535
1.22388393702
1.21642983635
1.2067338269
1.19491680503
1.18126475404
1.16610605824
1.14974441801
1.13244708101
1.1144451318
1.09593440775
1.07707895639
1.05801689234
1.03886845508
1.01974677704
1.00068027228
0.981735864157
0.962972949176
0.944443412021
0.926192930375
0.908262560623
0.890690378433
0.87351314879
0.856767802085
0.840492112743
0.824723136493
0.809493443759
0.794824607417
0.780890789318
0.349410324912
0.341623613127
0.341730176363
0.340956894968
0.332031145416
0.313034589229
0.275354509268
0.246202823543
0.226650654032
0.21180913746
0.200103111632
0.191066751896
0.184613434223
0.179829722332
0.176412924039
0.174417738692
0.173783685721
0.174295581691
0.176084269331
0.179891808076
0.187093126108
0.199679001493
0.220208879693
0.251687106393
0.29667471932
0.355751580583
0.426616919569
0.505027179623
0.586693419141
0.668234570095
0.747188686574
0.821796923794
0.890935112031
0.95401960904
1.01079601859
1.06119565549
1.10535380042
1.143576456
1.17624617186
1.20375974529
1.22654422682
1.24505120276
1.25971449038
1.27092614566
1.27905295914
1.28443691708
1.28737287444
1.28809245975
1.28677064239
1.28352497728
1.278405755
1.27139895268
1.26244829773
1.25153648616
1.23877150732
1.22437531329
1.20861079517
1.19173323762
1.17397546739
1.15554403002
1.13661808933
1.1173511589
1.09787580598
1.07831107174
1.05875012144
1.03922786153
1.01981696061
1.0005792236
0.981568512561
0.962832547534
0.94441445056
0.926354176197
0.90868986003
0.891458817432
0.874697652541
0.858440213621
0.842714522735
0.827539451584
0.813084856563
0.368558448021
0.360901430195
0.361297473078
0.360887948399
0.352133855243
0.332898951361
0.294485563938
0.26469100019
0.244967441279
0.229971564096
0.217481003904
0.207146458871
0.19894329223
0.192997441131
0.188487828489
0.185156325887
0.183035364482
0.181973325809
0.181574746313
0.181617699659
0.182169737297
0.183384674474
0.185402172665
0.188508303197
0.193468068687
0.201772218798
0.215782984308
0.238624463705
0.273522329333
0.322591368935
0.385585005632
0.459678994183
0.54057822375
0.624029136074
0.706746014981
0.786479205523
0.861722232424
0.931499029149
0.99526729344
1.05281698318
1.10413567119
1.14933057655
1.18863219568
1.22237315316
1.25093345903
1.27470415598
1.29409016794
1.30950294723
1.32133712435
1.32995448878
1.33568994799
1.33884975499
1.33969958172
1.33845375493
1.33527712825
1.33028519839
1.32354023159
1.31505712086
1.30482440167
1.29285835099
1.27925766757
1.26420035107
1.2479003129
1.23057308325
1.21242134908
1.19362931696
1.17436036208
1.15475765465
1.13494841716
1.11505452005
1.09512434255
1.07522776125
1.05543504525
1.03580820707
1.01640214161
0.997265946209
0.978444203218
0.959978207299
0.941907022329
0.924268148943
0.907097264027
0.890426047907
0.874280038625
0.858677678923
0.843785899389
0.388818700384
0.38187962949
0.383705848051
0.387045059619
0.386934871678
0.376970906951
0.355532845405
0.314836151958
0.283132514469
0.262358226115
0.24658869811
0.233331371885
0.222176047578
0.21318549942
0.206570503922
0.201400220082
0.197236483654
0.19407352337
0.192052254406
0.191040362008
0.19063608775
0.190594880726
0.190929540224
0.191671550967
0.192718208832
0.193917929876
0.195254772235
0.196881062498
0.199072239935
0.202301585502
0.207478375666
0.216269781585
0.231335412535
0.256191479905
0.294281894611
0.347357305631
0.414341418003
0.491734056438
0.575066257587
0.660227244649
0.744088936352
0.824553743533
0.900312977553
0.970554613589
1.03481531738
1.09290702002
1.14484323763
1.19076332853
1.2308811852
1.26548323003
1.29491307028
1.31954269378
1.33974861089
1.35590985455
1.36840159449
1.37758195588
1.38378140594
1.38730354185
1.38842322248
1.38737959979
1.38436927282
1.37954623065
1.3730225089
1.36486784051
1.35511631599
1.34378465012
1.33090880642
1.31657967269
1.30094388723
1.28417815692
1.26646540764
1.2479821924
1.22889258795
1.20934523941
1.18947348946
1.16939911893
1.14922970038
1.12900585921
1.10880785101
1.08870623768
1.06876345338
1.04903511155
1.02957124951
1.01041746749
0.991615986578
0.973206488678
0.955226544689
0.937711165548
0.920690697796
0.904189673664
0.888227428306
0.872968133849
0.408034885366
0.401339764306
0.403593502844
0.407497191416
0.407969540842
0.398366247708
0.376843812896
0.335689108607
0.303366712606
0.28244911109
0.266854725059
0.253712061623
0.241998158216
0.231823472717
0.223465560201
0.217267879407
0.212374201144
0.208380706591
0.205288501405
0.203234286288
0.202082910334
0.201420602798
0.200980157507
0.20078194854
0.200955312351
0.201553574999
0.202455068077
0.203472174487
0.204522857263
0.205628017
0.20679970123
0.208004248641
0.209232951437
0.210601988252
0.212413398848
0.215249128531
0.220194485928
0.229174723757
0.245218767126
0.272225757863
0.313740301151
0.37105762883
0.442252750668
0.523128068258
0.609004488659
0.695900871995
0.780902095679
0.862079339914
0.938257076055
1.00877646291
1.07329052973
1.13166918882
1.1839486885
1.23028429159
1.27090831684
1.30609782145
1.33616847999
1.36146500624
1.38234509548
1.39916520375
1.41227638813
1.42201995702
1.4287193386
1.43267349447
1.43415573081
1.4334122441
1.4306573814
1.42606978555
1.41979172682
1.41193016862
1.40255812696
1.39172140938
1.37945355002
1.36580117269
1.35084795454
1.33471722535
1.31755691984
1.2995231658
1.28076998168
1.26144342887
1.24167853257
1.22159965551
1.20132578121
1.18093139108
1.16047680152
1.14004162426
1.11969596193
1.09950219489
1.07951625422
1.05978872508
1.04036586608
1.02129049919
1.002602704
0.984340065672
0.966537182128
0.949223724521
0.93242426287
0.916159762134
0.900591308536
0.428909144417
0.421958616674
0.424295565163
0.42846600347
0.42921488786
0.419630613321
0.397654848341
0.35580048161
0.322481159691
0.301011244591
0.285025706671
0.271480003122
0.259255945421
0.248449940695
0.239457462786
0.232734161619
0.227400567068
0.222897010114
0.219080038663
0.216092532288
0.214113554958
0.213014917653
0.212385962808
0.211954778474
0.21173684457
0.211853789327
0.212346266711
0.213081106315
0.213860105394
0.214600669597
0.215349788571
0.21617558855
0.21708955937
0.218030020065
0.218923676765
0.219749366257
0.220528167747
0.221280557448
0.222036016291
0.222902120796
0.224172681695
0.226480414557
0.231058485643
0.240120649529
0.257140997605
0.286462094819
0.331686068044
0.393538067783
0.469208202857
0.553835065981
0.642496779039
0.731296392005
0.81751769198
0.899418991415
0.975971779696
1.04663341212
1.11117899855
1.16957110622
1.22189900689
1.26834516057
1.3091568975
1.34462257679
1.3750530207
1.40077516917
1.42212676662
1.4394465759
1.45306687428
1.46330949675
1.47048311493
1.47487788901
1.47676166509
1.47637839057
1.47394711112
1.46965870526
1.46367364925
1.45612168247
1.44710303776
1.43669053128
1.42493584347
1.4118815502
1.39757900486
1.38210492186
1.36556460313
1.3480832957
1.32979501972
1.31083441144
1.29133147644
1.2714087153
1.2511819117
1.23076299986
1.21019910227
1.1895730093
1.16896097757
1.1484317829
1.12804728492
1.1078633516
1.08793077892
1.06829617333
1.04900270518
1.03009068214
1.0115976935
0.993558142116
0.976001544054
0.958953220054
0.942436170802
0.926607985136
0.453387301527
0.44586916932
0.448464150975
0.453903586402
0.458658810949
0.458811392226
0.44732123124
0.422372830667
0.377833007709
0.342231466972
0.319666802795
0.30304129734
0.288905236086
0.275963621651
0.264310607452
0.254535386896
0.247266137524
0.241615547909
0.236910488028
0.23291805909
0.22973462737
0.227525113993
0.226174203327
0.225270433866
0.224507482219
0.223853193123
0.223432621794
0.22339276853
0.223765551445
0.224402704796
0.225094678886
0.225748424382
0.226402429818
0.227116388302
0.227893558244
0.228667577431
0.229363910449
0.229966240939
0.230509431441
0.231025397208
0.231514486905
0.231950357768
0.23230980474
0.232597653921
0.232843332147
0.233097758459
0.233473392193
0.234249071077
0.236063619217
0.240241820058
0.249260621955
0.267083304903
0.298601581359
0.347554845444
0.414101764989
0.494527961795
0.583285640378
0.675160062596
0.766237200107
0.85393698534
0.936694254478
1.01364305896
1.08437930888
1.14879251902
1.20695378569
1.25903589673
1.30527455192
1.34594838893
1.38136323086
1.41183900283
1.43770058228
1.4592735133
1.47688158214
1.49084120859
1.50145770589
1.50902275385
1.51381288102
1.51608610467
1.51607971808
1.51400915264
1.51006725333
1.50442220145
1.49721631264
1.48856595454
1.4785630614
1.46727736502
1.45476209067
1.4410634553
1.42623359802
1.41034237508
1.39348063122
1.37575539785
1.35728236594
1.3381795242
1.31856259695
1.29854256023
1.27822700054
1.25770696971
1.23703596016
1.21629829353
1.19556885427
1.17491509596
1.15439806329
1.13407323614
1.11399133206
1.09419904113
1.0747396817
1.05565366063
1.03697858491
1.01874884532
1.00099420462
0.983741203588
0.967015097173
0.950969731609
0.496172068706
0.485357275406
0.486351044072
0.491232942707
0.496541147412
0.500220624116
0.498258433424
0.48285756637
0.452545428604
0.403455771157
0.364210003637
0.340232622408
0.323324471252
0.309422244029
0.296696201766
0.284435288899
0.273022756397
0.263378127116
0.256377522776
0.25111486015
0.246828819331
0.243216108265
0.240341018999
0.238373890179
0.237240189459
0.236561508475
0.236029554876
0.235585489208
0.235329340129
0.235388666752
0.235787917793
0.236385345458
0.236977498061
0.237469149296
0.237893549322
0.23833331274
0.238855293643
0.239460206413
0.240079767713
0.24063884537
0.241118058785
0.241544552352
0.241942590756
0.242307120531
0.242610062078
0.24282927719
0.242969792835
0.243054308323
0.24309870569
0.243102266575
0.243055487376
0.242955731353
0.242821166856
0.242700502649
0.242703729732
0.243091710424
0.244475251054
0.248191355479
0.256878247055
0.274955506479
0.308012394132
0.360214391833
0.43136936937
0.516870904187
0.610350300293
0.70612500875
0.800126104522
0.889808159424
0.973746499501
1.05124850968
1.12207554423
1.18626304638
1.24400392023
1.29557647257
1.34129776963
1.38150127051
1.41652687897
1.44671442644
1.47239803349
1.49390289899
1.511543902
1.52562529527
1.53643820013
1.54425913751
1.54934897855
1.55195237819
1.55229590239
1.55058700574
1.54701323553
1.54174197184
1.53491919699
1.52666894815
1.5170935976
1.50627534857
1.49427863911
1.48115495357
1.46695044179
1.45171540976
1.43551292885
1.41842188408
1.400534451
1.38195103901
1.36277537212
1.34311049226
1.32305644584
1.30271454313
1.2821431525
1.26142440238
1.24063609231
1.21984983633
1.19913113005
1.17853983748
1.15813077071
1.13795432091
1.11805705508
1.0984822746
1.07927040024
1.06045907323
1.04208283341
1.0241719811
1.00675457226
0.989858188828
0.973632979963
0.595483193123
0.581019901944
0.583031310221
0.589043536702
0.593143785747
0.588242135489
0.562327034531
0.515947410826
0.44987732127
0.394024836918
0.362054483411
0.341116081927
0.325070634485
0.311286769127
0.29846508941
0.286135604615
0.274876832453
0.265681948267
0.259434839363
0.25495171568
0.251374702625
0.248295315068
0.245691704961
0.243769884638
0.242743457364
0.242518220126
0.242670786784
0.242861822707
0.243040175694
0.243325154848
0.243854911674
0.24465708175
0.24559529741
0.246473343851
0.247202733259
0.247818853202
0.248406248846
0.249029666191
0.249687292157
0.250311399628
0.250830212473
0.251229580432
0.251546806684
0.251828470933
0.252102429819
0.252363792331
0.252583973603
0.252739414968
0.252832339176
0.252880792667
0.252895704402
0.252872210559
0.252797656659
0.252665288402
0.252481301138
0.252258280144
0.252003972976
0.25171840726
0.251400561252
0.251060100413
0.250733538507
0.250513978487
0.250627021732
0.251609988296
0.254684824358
0.262398110372
0.279297515948
0.311571313809
0.36428877537
0.43773479691
0.526960351453
0.624803519479
0.72483961785
0.822523466634
0.915100553097
1.00112585581
1.07999800081
1.15161591721
1.21615759659
1.27394683403
1.32537377744
1.37084957809
1.4107807289
1.44555855418
1.47555642665
1.50112928423
1.52261302322
1.54032486713
1.55456433804
1.56561446317
1.57374135577
1.57919428479
1.58220559324
1.58299098198
1.58174869511
1.57865921011
1.57388496847
1.56757037611
1.55984122477
1.55080467915
1.54054970802
1.52914870519
1.51665977497
1.50313097184
1.48860634926
1.47313320477
1.45676856254
1.43958186671
1.42165372359
1.40307242953
1.38393013948
1.36431925017
1.34432900193
1.32403653433
1.30351838842
1.28285233929
1.26211198257
1.24136594716
1.22067771911
1.20010583382
1.17970426522
1.1595228871
1.13960797222
1.12000265245
1.10074727731
1.08187950624
1.06343412282
1.04544212261
1.02793318799
1.01093709532
0.994600440104
0.655584616503
0.638062964077
0.639209483913
0.643640291684
0.641297001225
0.61947555706
0.575572371985
0.501926457838
0.443192776712
0.407017653632
0.381425748859
0.360395684847
0.341055695237
0.32221853891
0.304602753317
0.289955980485
0.279559031199
0.272107829689
0.266326387455
0.261425178711
0.257109442126
0.253425326938
0.250630358977
0.248960068218
0.24828407798
0.248092712172
0.2479624413
0.247790201225
0.24767231274
0.247787913712
0.248294632806
0.249197166514
0.250305782445
0.251373610485
0.252291742975
0.253097377299
0.253885661195
0.254726437576
0.255612643057
0.256465091757
0.257202416294
0.257807765025
0.258317476445
0.258779524314
0.259221049528
0.259633798498
0.259984841464
0.260248054327
0.260426974744
0.260546855007
0.260632252814
0.260694369884
0.260728302144
0.260720795928
0.260663370517
0.260559469201
0.260418274606
0.260244097591
0.260033636168
0.259781055725
0.259484579306
0.259148812955
0.258780924137
0.258385826561
0.257966160554
0.257528577504
0.257096130996
0.256732674473
0.256598049984
0.257081843499
0.259102882509
0.264694338369
0.277845043398
0.304819754303
0.352181340853
0.422463875741
0.51187634688