/*--------------------------------*- C++ -*----------------------------------*\
| =========                 |                                                 |
| \\      /  F ield         | OpenFOAM: The Open Source CFD Toolbox           |
|  \\    /   O peration     | Version:  2.3.1                                 |
|   \\  /    A nd           | Web:      www.OpenFOAM.org                      |
|    \\/     M anipulation  |                                                 |
\*---------------------------------------------------------------------------*/
FoamFile
{
    version     2.0;
    format      ascii;
    class       volScalarField;
    location    "300";
    object      nut;
}
// * * * * * * * * * * * * * * * * * * * * * * * * * * * * * * * * * * * * * //

dimensions      [0 2 -1 0 0 0 0];

internalField   nonuniform List<scalar> 
10011
(
3.09416051223e-05
3.71955016533e-05
4.09540775787e-05
4.31631957103e-05
4.4417689397e-05
4.50825932637e-05
4.53848026995e-05
4.5466803125e-05
4.54182036419e-05
4.52951357051e-05
4.51324130982e-05
4.49510385506e-05
4.47625743113e-05
4.45707073455e-05
4.43426350447e-05
4.40197308931e-05
4.3475991325e-05
4.03443051046e-05
0.000116754769111
6.95282549295e-05
5.17754463206e-05
4.25859172586e-05
3.73224715277e-05
3.40857803764e-05
3.19888265385e-05
3.05840211464e-05
2.96269938427e-05
2.89746319347e-05
2.85380723116e-05
2.82593977602e-05
2.81000567098e-05
2.80451850948e-05
2.80265049178e-05
2.79440604641e-05
2.77007219899e-05
2.68313760574e-05
0.000365666186139
0.000224200371585
0.000163715075028
0.000129433436452
0.000107811691333
9.32803733786e-05
8.30253566681e-05
7.55191764688e-05
6.98832670783e-05
6.55868373876e-05
6.23015515657e-05
5.98298028868e-05
5.81907432215e-05
5.71306626645e-05
5.64901499564e-05
5.63930522834e-05
5.7180525039e-05
5.94604872179e-05
0.000645082449796
0.000480387601278
0.000380890809888
0.000316549541743
0.000272406049138
0.000240852191487
0.000217556407495
0.000199932487708
0.000186382308126
0.00017589753595
0.000167911808911
0.00016216509439
0.000157764251781
0.000154649019886
0.000152899945743
0.00015284380948
0.000155153190017
0.000160699768666
0.000789525803173
0.000697852427188
0.000614162606476
0.000545746610513
0.000491412725729
0.000448488163421
0.000414442526587
0.000387278106284
0.000365536982479
0.000348337756898
0.000334735507637
0.000323848039248
0.000315359944942
0.00030916280613
0.000305364798637
0.000304326986254
0.000306620642374
0.000312511776403
0.00083624928773
0.000802606934838
0.00076035704776
0.000716644452602
0.000675400289726
0.000638342460575
0.000605931789144
0.000578052056076
0.000554530857209
0.000534605309463
0.000517822048714
0.000503897271683
0.000492666331622
0.000484104898936
0.000478345720176
0.000475669325844
0.000476361579347
0.000480132529378
0.000848398073562
0.000838762288952
0.000823567112772
0.000804445346239
0.000783253490592
0.000761546282314
0.000740451594591
0.00072072126478
0.000702521684002
0.000686071215836
0.00067147815353
0.000658819207346
0.000648182725093
0.000639699579666
0.000633556037013
0.000629965315543
0.000629014269498
0.000630208577672
0.000850844963401
0.00084764521947
0.000841997821602
0.00083397309848
0.000824050864588
0.000812883869077
0.000801117715873
0.00078923044467
0.000777625780498
0.000766626888766
0.000756492932607
0.000747445992224
0.000739695403312
0.000733454494007
0.000728940367056
0.000726336430757
0.000725657834699
0.000726421289253
0.000851474394117
0.000850284322944
0.000848210657391
0.000845067921964
0.000840866416058
0.000835766245326
0.000829979169126
0.000823760916284
0.000817367548486
0.000811043513231
0.000805018579499
0.000799511535525
0.000794735678382
0.000790900452255
0.000788200775223
0.000786778802139
0.000786617068855
0.000787295290506
0.000851636480779
0.000851062997551
0.000850274187598
0.000849156011741
0.000847646001125
0.000845732563835
0.000843453859307
0.000840887018777
0.00083813733296
0.000835329306272
0.000832600656494
0.000830098704238
0.000827976947344
0.000826388365239
0.000825470146683
0.000825310332581
0.00082586969827
0.000826805861499
0.000851668149805
0.000851240757054
0.000850807568622
0.000850330385382
0.000849778097634
0.000849133222428
0.000848394038439
0.000847576592574
0.000846715005326
0.000845860196055
0.000845077964909
0.000844446456095
0.000844051992232
0.00084398154781
0.000844309326258
0.000845072376141
0.000846217692135
0.000847475768919
0.000851671712443
0.000851266522918
0.000850901479798
0.000850569692193
0.000850265341232
0.000849986266663
0.000849734694791
0.000849518978028
0.000849355217191
0.000849267946327
0.000849289907733
0.000849460738212
0.000849823937382
0.000850421290287
0.000851283774361
0.000852416377931
0.000853764677086
0.000855124040376
0.000851671966883
0.000851264974662
0.000850901886483
0.000850584203191
0.000850314111255
0.000850096020296
0.00084993654894
0.000849845055904
0.00084983439188
0.000849921216729
0.000850125681845
0.000850470304631
0.000850977718683
0.000851666995301
0.000852548286954
0.000853614360328
0.000854820396939
0.000856018821798
0.000851673460365
0.000851262496675
0.00085089132103
0.000850562912756
0.000850280675894
0.000850049641496
0.000849876493572
0.000849769656476
0.000849739475702
0.000849798135956
0.000849959143385
0.000850236292746
0.000850642029872
0.000851185184392
0.00085186807093
0.000852682045039
0.000853595596214
0.000854507524369
0.000851676469564
0.000851262748876
0.000850883985919
0.000850542966888
0.000850242693182
0.000849987239476
0.000849781865472
0.000849632994324
0.000849548163654
0.000849535797098
0.00084960470002
0.000849763259762
0.00085001836768
0.00085037412446
0.000850830376466
0.000851380456472
0.000852004431933
0.000852635381092
0.000851680379971
0.000851265197186
0.000850880684495
0.000850528970525
0.000850212343697
0.000849933796973
0.000849697139007
0.000849506943507
0.000849368423288
0.000849287184435
0.000849268824655
0.000849318384847
0.000849439695853
0.000849634682867
0.000849902664097
0.000850239248414
0.000850632908706
0.000851040661134
0.000851684216113
0.000851268395519
0.000850879778595
0.000850519711739
0.000850189744497
0.000849891956824
0.000849629027022
0.000849404164513
0.000849220967894
0.000849083205584
0.000848994514767
0.000848958038048
0.000848976034426
0.000849049505944
0.000849177867403
0.000849358462986
0.000849585358158
0.000849831861589
0.000851686754533
0.000851270462002
0.000850878885344
0.000850512692583
0.000850172845597
0.000849860791181
0.000849578471908
0.000849328241814
0.000849112730488
0.000848934651322
0.000848796569448
0.000848700645226
0.000848648386861
0.000848640428863
0.000848676371414
0.000848754622728
0.000848872586758
0.000849013722325
0.000851687581427
0.000851270594731
0.000850876672402
0.000850506012049
0.000850159237672
0.000849837462112
0.000849542221069
0.000849275381603
0.00084903901224
0.000848835210712
0.000848665905891
0.000848532665443
0.00084843651895
0.00084837781761
0.000848356153372
0.000848370385941
0.000848419669698
0.000848493299845
0.000851687331159
0.000851269472744
0.000850873438235
0.000850499095557
0.00085014689434
0.000849817697071
0.000849512635895
0.000849233040514
0.000848980326202
0.000848755834024
0.000848560675057
0.000848395592614
0.000848260851635
0.000848156155066
0.000848080627784
0.000848032955951
0.000848012968996
0.000848013448733
0.000851686660043
0.000851267742407
0.000850868986864
0.000850489464037
0.000850128683236
0.000849786046836
0.000849460773368
0.000849152002186
0.000848858794996
0.000848580090057
0.000848314677066
0.000848061184661
0.000847818069385
0.00084758360939
0.000847355944093
0.000847133293732
0.000846916002254
0.000846700992277
0.000851685555154
0.000851262746568
0.000850851678453
0.00085044486818
0.000850033760488
0.000849608527129
0.000849159121427
0.000848676261188
0.000848151931808
0.000847579651956
0.000846954603063
0.000846273617768
0.000845535056621
0.000844738627772
0.000843885216498
0.000842976932027
0.000842019614916
0.000841023770026
0.000851677198929
0.000851213871864
0.000850692317456
0.00085006431579
0.000849283087086
0.000848308255019
0.000847110278542
0.000845671718248
0.000843986341165
0.000842057434669
0.000839895839186
0.000837517948976
0.000834943897921
0.000832196037811
0.000829297763994
0.000826272903026
0.000823149021488
0.000819974636686
0.00085158294539
0.000850738717567
0.000849360007205
0.000847270112541
0.000844369166734
0.000840633244314
0.00083610075691
0.00083085118135
0.000824985959788
0.000818614561666
0.000811845084576
0.000804778485884
0.00079750556625
0.000790105826034
0.000782647505369
0.000775188589533
0.000767783222352
0.000760526350569
0.000850710137596
0.000847076443804
0.000840664350185
0.000831513227254
0.000820018693429
0.00080673431937
0.00079222607248
0.000776989634415
0.000761423981829
0.000745833517595
0.000730440892814
0.000715402741467
0.000700824740477
0.000686774423988
0.000673291404365
0.000660395400024
0.000648097271285
0.000636465217713
0.000844080397709
0.00082495850464
0.000797753189376
0.000766156269486
0.000733015907912
0.000700222326852
0.000668859158182
0.000639451197
0.000612188085673
0.000587072740347
0.000564010021258
0.000542858585665
0.000523460562444
0.000505657871727
0.00048930072224
0.00047425169589
0.000460390102283
0.000447662458014
0.000803305057859
0.000726472357774
0.00065117398735
0.000585181398449
0.000529210523144
0.000482213399852
0.000442708343395
0.000409298798569
0.000380826526383
0.000356368166293
0.000335194399255
0.000316729158287
0.000300515792307
0.000286190404167
0.000273461423662
0.000262094233333
0.00025189996836
0.000242750399786
0.000625686565995
0.000465055962529
0.000368475098736
0.000303982694353
0.000258091764812
0.000224130725665
0.000198186763487
0.000177839318107
0.000161535259895
0.000148236720209
0.000137224891815
0.000127987610172
0.000120151422329
0.000113438683765
0.000107639688567
0.000102594446282
9.81810650895e-05
9.43197713922e-05
0.000254158414162
0.00015818452205
0.000117769407717
9.43787869018e-05
7.93398033553e-05
6.91094866986e-05
6.18472129458e-05
5.65209602757e-05
5.25154873134e-05
4.94432390788e-05
4.70491986293e-05
4.5159724278e-05
4.36532179985e-05
4.24424763134e-05
4.14636800498e-05
4.06693679515e-05
4.0023893452e-05
3.9504907675e-05
3.69332019499e-05
4.20247677438e-05
4.5759081117e-05
4.86608502568e-05
5.10541912474e-05
5.29994002849e-05
5.45557559831e-05
5.57801446706e-05
5.67250541439e-05
5.74372131716e-05
5.79571806152e-05
5.83195522298e-05
5.85534730967e-05
5.86832762954e-05
5.87291524235e-05
5.87077839796e-05
5.86331142357e-05
5.85149382717e-05
3.60647590276e-05
8.24444804265e-05
6.05924014397e-05
6.47216978492e-05
6.36956279813e-05
6.32338023478e-05
6.30626696069e-05
6.30604436376e-05
6.31527544148e-05
6.32872193082e-05
6.34282213131e-05
6.35526720258e-05
6.3646151052e-05
6.37002540915e-05
6.37108046698e-05
6.36765273015e-05
6.35980338042e-05
6.34762755133e-05
6.3320391791e-05
6.31307437135e-05
6.29079638291e-05
6.26525371459e-05
6.23643576507e-05
6.20421774823e-05
6.16827463165e-05
6.12793826211e-05
6.08180280241e-05
6.02755587452e-05
5.95219239139e-05
3.64954719164e-05
6.5704519305e-05
8.65976463443e-05
0.00010537154847
0.000143646226092
0.0001748844734
0.000199958598936
0.000222274924789
0.000242230321185
0.000259238391513
0.000273035810011
0.000283691556397
0.000291442140037
0.000296611017595
0.000299563537405
0.000300668779609
0.000300271306434
0.000298675912369
0.000296142641334
0.00029288881101
0.000289085915252
0.000284769094756
0.000280058281705
0.000275040026248
0.000269770994251
0.000264276779893
0.000258545900994
0.000252513441756
0.000246023408606
0.000238712081949
0.0002296575871
0.000216302369931
3.56047073241e-05
6.10277243533e-05
7.34105285546e-05
9.16589660534e-05
0.000116209941051
0.000165551746785
0.000227065777404
0.000298092267174
0.000369161895548
0.000426864015106
0.00046960920665
0.000503702929982
0.000532260064786
0.000555975026013
0.000575154772929
0.00059015668558
0.000601341211443
0.00060906410899
0.000613694045975
0.000615610977869
0.000615191274361
0.000612793097293
0.00060874730475
0.000603357707595
0.000596937164957
0.000589489477888
0.000581190445071
0.000572177140462
0.000562544508277
0.000552337404229
0.00054153492438
0.000530016586803
0.000517486526546
0.000503265252835
0.000485683025517
0.000461284056841
3.50476860051e-05
6.05141990924e-05
7.31635341302e-05
9.13592893538e-05
0.000115377617288
0.000160714257185
0.000213931847469
0.000281980480067
0.000365097791917
0.000453902384948
0.000541902593936
0.000625452579784
0.000698990140339
0.000756458093366
0.00079780918613
0.000828617801889
0.000852871484833
0.000872159103769
0.000887242110952
0.000898676282455
0.000906879542218
0.000912168489999
0.000914812008847
0.000915063121106
0.000913169271908
0.000909373797231
0.000903917017899
0.000897046866562
0.00088904053231
0.000879849600369
0.000869621076491
0.000858474967674
0.000846496382139
0.000833723692946
0.000820128415204
0.000805576181212
0.000789744060337
0.000771915926892
0.000750472052773
0.000722999514428
3.30640250836e-05
5.75730113465e-05
7.01560080548e-05
8.81215917672e-05
0.000113497530434
0.000162320929114
0.000220554983323
0.000294378389467
0.00038263839609
0.000474518778937
0.000565023795535
0.000656987385209
0.000750077267295
0.000839426415419
0.000921736703254
0.00099479131888
0.00105615499255
0.00110298800609
0.00113560290838
0.00115803662492
0.00117387438508
0.00118497930597
0.00119235743846
0.00119670136291
0.00119850471771
0.00119811083621
0.00119577048682
0.00119168393771
0.00118602414489
0.00117895059958
0.00117062390439
0.00116124148683
0.0011509218216
0.00113959891743
0.00112737190009
0.0011143172231
0.00110048435
0.00108588548674
0.00107047701474
0.00105412437363
0.00103653103933
0.00101707914992
0.000994505209462
0.000967597984635
3.02614925358e-05
5.27752125275e-05
6.44044544603e-05
8.08015946274e-05
0.000104305216926
0.00015254256245
0.000213664511569
0.00029401950049
0.000392872630469
0.00049811584406
0.000602085965838
0.000706352125305
0.000809700086669
0.000907278061156
0.000998133685401
0.00108391924205
0.00116464061887
0.00123867632308
0.00130449037568
0.00136087063522
0.00140658575389
0.00144017750769
0.00146198072462
0.00147476038949
0.00148137608688
0.00148361866275
0.00148256894882
0.00147898018941
0.00147339364141
0.00146618742203
0.00145762775197
0.00144790990866
0.00143718503814
0.0014255802441
0.001413223632
0.00140031267269
0.00138670710293
0.00137245419204
0.00135760000352
0.00134217874276
0.00132620539752
0.00130966637907
0.00129250421262
0.00127458942195
0.00125566585061
0.00123523945426
0.0012124071206
0.00118678340225
2.83294277096e-05
4.81342333437e-05
5.51053521566e-05
6.18669507098e-05
7.40672896393e-05
8.87704142521e-05
0.000124664085887
0.000176851499153
0.000253919032671
0.000357698311808
0.000476641439021
0.000599435066256
0.000724862901236
0.000850004122207
0.000968261935553
0.00107723138729
0.0011782052956
0.0012713402697
0.0013558138994
0.00143217185358
0.00150149340546
0.0015640117734
0.00161937182802
0.00166692300249
0.00170609786526
0.00173626169715
0.00175664459986
0.00176753947151
0.00177080517132
0.00176859455745
0.0017624628412
0.00175344590436
0.00174229015286
0.00172954503965
0.00171560535128
0.00170075276737
0.00168519137524
0.00166907382058
0.0016525246751
0.00163567354898
0.00161863078394
0.00160123861688
0.00158354461767
0.00156557754131
0.0015473502405
0.00152885764099
0.00151007091801
0.00149092631992
0.00147130420432
0.00145098916636
0.00142959718226
0.00140650604976
0.00138181185844
2.85614815292e-05
4.8462146774e-05
5.5322123889e-05
6.15441830411e-05
7.17395619369e-05
7.22758935493e-05
8.04466704496e-05
9.43139796946e-05
0.000119904503296
0.00016875937002
0.000249630995706
0.000360272354749
0.000491622661918
0.000638804613084
0.000794561764294
0.000947669301486
0.00109120534882
0.00122422262085
0.00134590632229
0.00145489265649
0.00155148792495
0.00163713935427
0.00171281265116
0.00177921392697
0.00183736223855
0.00188823389518
0.00193227459546
0.0019696261248
0.0020001157332
0.00202353359594
0.00203957124305
0.00204783571631
0.00204858030206
0.00204305860003
0.00203284769993
0.00201922293787
0.00200310956418
0.00198520144708
0.00196602421239
0.00194596775557
0.00192531799075
0.00190428582503
0.00188303114932
0.00186168911568
0.00184043249464
0.00181915747958
0.00179785811153
0.00177656583117
0.00175529827235
0.00173405853463
0.001712833327
0.00169158890296
0.00167026302896
0.00164874975332
0.00162687104104
0.00160433129784
0.00158070956787
0.00155636184768
2.91504820987e-05
4.95894067181e-05
5.66858754254e-05
6.30599855742e-05
7.32826626786e-05
7.00403450528e-05
7.02694631102e-05
7.2399678172e-05
7.76157782722e-05
8.95301092378e-05
0.000112314286464
0.000150058967145
0.000207514392491
0.000293180049501
0.000415044114194
0.000571836661308
0.00075034794508
0.000935551224993
0.00111798158372
0.0012907888866
0.00144854359124
0.00158884281848
0.0017121745761
0.00181948188857
0.00191182899856
0.00199077430109
0.0020580925025
0.00211520790775
0.00216336210442
0.00220372299131
0.0022372499713
0.00226452598934
0.00228589796281
0.0023014531518
0.00231117294188
0.00231493686111
0.00231256729863
0.00230428516185
0.00229095062355
0.00227370811126
0.00225356998889
0.00223132674507
0.00220759602819
0.00218285985926
0.00215748702845
0.0021317562168
0.0021058788329
0.00208002079649
0.00205432944714
0.00202894356974
0.00200371804073
0.00197870582103
0.00195394156537
0.00192944360213
0.00190521489655
0.00188124256649
0.00185749537885
0.00183391818261
0.00181042091941
0.00178685868187
0.00176300490478
0.00173857931005
0.00171406925613
2.98233011472e-05
5.08855470691e-05
5.82760908763e-05
6.48898126689e-05
7.54136301354e-05
7.17795738673e-05
7.09005059339e-05
7.11938056831e-05
7.27712963259e-05
7.65424695699e-05
8.26790496792e-05
9.15919094868e-05
0.000104318582877
0.000124738252351
0.000160120866157
0.000219796356473
0.00031156073297
0.000439629826297
0.000603549910579
0.000797290696764
0.00100871554854
0.0012227915993
0.00142734365683
0.00161539162641
0.00178332188068
0.00192977999143
0.00205522479411
0.00216140888774
0.00225032987339
0.00232403930658
0.00238459631283
0.00243393102156
0.00247364415788
0.00250512191206
0.00252954301552
0.00254784136037
0.0025606509663
0.00256840278079
0.00257131239587
0.0025694643854
0.00256284712252
0.00255140672062
0.00253533776469
0.00251524444514
0.00249195821433
0.00246626907421
0.00243883401711
0.00241018727361
0.00238075831221
0.0023508855409
0.00232083238608
0.00229080508931
0.00226097321652
0.00223150804871
0.00220241625246
0.00217365138251
0.0021452759658
0.00211733014019
0.00208983674291
0.00206280315298
0.0020362215294
0.00201006732977
0.00198429545671
0.00195883230936
0.00193356180236
0.00190831112033
0.00188289832552
0.0018578698146
3.06243459585e-05
5.23990417137e-05
6.01057239123e-05
6.69739651007e-05
7.78403549697e-05
7.42541929743e-05
7.33063306777e-05
7.34177714277e-05
7.45862815062e-05
7.73683860506e-05
8.13237799337e-05
8.60653256616e-05
9.12851196967e-05
9.778658621e-05
0.000106980771963
0.000120573708386
0.000140894707006
0.00017237717802
0.000223106952337
0.000304510273231
0.000427087540614
0.000593813069597
0.000798089278564
0.00102690033374
0.00126553066563
0.00150030908464
0.00172054071762
0.00191958785538
0.00209456505685
0.00224497985423
0.00237190483761
0.00247730941007
0.00256363078286
0.00263330419968
0.00268866154911
0.00273185064426
0.00276477210567
0.0027890154518
0.00280593006226
0.00281663265065
0.00282200051248
0.00282266633393
0.00281907472203
0.00281149450351
0.00280006390071
0.00278483142626
0.00276581298553
0.00274317959718
0.00271736719278
0.0026889841126
0.0026586422855
0.00262687890743
0.00259414766105
0.00256082406406
0.00252721252622
0.00249355699559
0.00246005494323
0.00242687555656
0.00239419124261
0.00236189323565
0.00233005295849
0.00229873104988
0.00226797176191
0.00223780347408
0.00220823978652
0.00217927988036
0.00215090769089
0.00212308917497
0.00209576655474
0.00206884849144
0.00204220431694
0.00201572146924
0.00198996466542
3.13216765603e-05
5.35800151153e-05
6.0713393884e-05
6.49075260615e-05
7.05979504489e-05
8.12478121274e-05
7.74255676989e-05
7.63024694809e-05
7.63012823574e-05
7.73507622765e-05
7.9958815608e-05
8.36602781146e-05
8.79949381836e-05
9.2460853106e-05
9.74679383711e-05
0.000103547432516
0.000110785533763
0.000118987084386
0.000128455169308
0.000140543485264
0.000157820262987
0.000184462818049
0.000226999982097
0.000295203040993
0.000401246413643
0.000555068344433
0.000757453994422
0.000997430023471
0.00125724480686
0.0015193335835
0.00177016431751
0.0020007978234
0.00220631179963
0.00238488983305
0.00253684642181
0.00266372987399
0.0027678188457
0.00285170128673
0.00291800735362
0.00296920923411
0.00300757326919
0.00303512072174
0.00305360179335
0.00306448692004
0.00306900871736
0.00306817730038
0.00306278962655
0.00305343900659
0.00304055097185
0.00302440194804
0.00300515220314
0.00298288147032
0.00295764214606
0.00292958296995
0.00289902658998
0.00286642287234
0.00283224513753
0.00279692881968
0.00276085500315
0.00272434832621
0.00268767934798
0.0026510713129
0.00261471150049
0.00257876763921
0.00254333981484
0.00250835480384
0.00247390756083
0.00244006702202
0.00240688339107
0.00237439109477
0.00234261037028
0.00231154787895
0.00228119632505
0.00225153251196
0.00222251313763
0.00219406792617
0.00216609956229
0.00213854495962
0.00211196397432
3.21822361451e-05
5.52468127484e-05
6.27253763984e-05
6.71069998287e-05
7.29972688976e-05
8.3914371899e-05
8.01599416653e-05
7.89387262944e-05
7.85908882608e-05
7.87855578892e-05
7.99557507043e-05
8.2715725537e-05
8.65635970791e-05
9.09956050721e-05
9.54755960059e-05
0.000100405039549
0.000106258172765
0.000112983176564
0.000120114361469
0.000127404173182
0.000135125735891
0.000143695487934
0.00015347569422
0.000165047876071
0.000179852743662
0.000200967302726
0.000233968832152
0.000287817352801
0.000374867545152
0.000508281936043
0.000695795333953
0.000933442224767
0.00120548582831
0.00149102328433
0.00177139632368
0.00203367354051
0.00227049238872
0.00247861922837
0.0026575623762
0.00280850561518
0.0029335531771
0.00303523274058
0.00311624286105
0.00317925731892
0.00322679759915
0.00326115407467
0.00328437445323
0.00329825369241
0.00330433564281
0.00330391843894
0.00329808514168
0.00328772011943
0.0032735260775
0.00325603515006
0.00323563417461
0.00321258474314
0.00318704804565
0.00315911611975
0.00312885760411
0.00309640043778
0.00306198815877
0.00302595755862
0.00298867566903
0.00295049423933
0.00291173161633
0.00287266683111
0.0028335389108
0.00279455104515
0.00275588053479
0.00271770741843
0.0026799785714
0.00264275992454
0.00260613891127
0.00257018593378
0.00253495527986
0.00250048668726
0.00246680657161
0.00243392870365
0.00240185404806
0.00237056941479
0.00234004433542
0.00231022637288
0.00228104485144
0.00225247230019
0.00222505045353
3.2926809786e-05
5.66875165374e-05
6.42510427961e-05
6.78917989298e-05
7.09040173414e-05
7.64135648183e-05
8.73768356162e-05
8.34350242839e-05
8.20731592524e-05
8.16539918466e-05
8.1784278456e-05
8.28457872021e-05
8.54110237811e-05
8.89558398864e-05
9.29027315375e-05
9.6597805681e-05
0.000100352710786
0.000104801000654
0.000110381721981
0.000116946253405
0.000123943143491
0.000131053302871
0.000138455169686
0.000146382109192
0.000154805739662
0.000163538387806
0.000172535637449
0.000182093446989
0.000192810158
0.000205723154291
0.000222836216354
0.000248050069787
0.000288434407323
0.000355339814054
0.000463744407638
0.00062745115905
0.000850782903341
0.00112348658641
0.00142445771164
0.00173065849516
0.0020238343802
0.00229258341846
0.00253139655151
0.00273866600291
0.00291511119055
0.00306272796444
0.00318411656607
0.00328209147975
0.0033594410534
0.00341883668105
0.00346276247486
0.00349347946142
0.00351299998264
0.00352309609109
0.00352530675009
0.00352095128659
0.00351114037112
0.00349679843944
0.00347868073743
0.00345738975283
0.00343338687208
0.00340701069427
0.00337849538542
0.00334799104207
0.00331558968043
0.00328136334187
0.00324542076179
0.0032079483833
0.0031692014962
0.00312946627546
0.00308902701631
0.00304814934145
0.00300707270533
0.00296600794743
0.00292513989095
0.00288463478545
0.00284462620044
0.00280504952114
0.00276601579944
0.00272761585664
0.00268992311379
0.00265299565612
0.00261687790054
0.00258160177556
0.00254718744527
0.00251364331414
0.00248096509793
0.00244913352575
0.00241811123736
0.00238784905403
0.00235834533046
0.00233011628069
3.36749987667e-05
5.82393451194e-05
6.61836414484e-05
7.0014984825e-05
7.31691601477e-05
7.88810330416e-05
9.01276431321e-05
8.62930223906e-05
8.4920078451e-05
8.4379875362e-05
8.41604682616e-05
8.43649251156e-05
8.55177599139e-05
8.8196381886e-05
9.18461656951e-05
9.5881622801e-05
9.96108591743e-05
0.000103339105896
0.000107686792493
0.000113063068159
0.000119267050356
0.0001256719735
0.000131909890894
0.000138185377044
0.000144923022589
0.000152385397642
0.000160477604686
0.000168912199494
0.000177506007698
0.000186309859997
0.000195426728207
0.000204875597396
0.000214668059397
0.00022500661243
0.000236518870245
0.000250555036965
0.000269795853951
0.000299358144542
0.000348305052405
0.000430733697351
0.000563987344846
0.000761303747413
0.00102191216914
0.0013283576501
0.00165461736954
0.00197657056423
0.00227744294348
0.00254807917032
0.00278497481835
0.00298815382509
0.00315947324897
0.00330164612607
0.00341769573469
0.00351064885901
0.00358339083562
0.00363858190424
0.00367864331278
0.00370575359067
0.00372185375791
0.00372865128053
0.00372763507999
0.0037200917391
0.00370712101826
0.00368964943032
0.0036684475291
0.00364414598453
0.00361724822526
0.00358814235467
0.00355711502968
0.0035243671185
0.00349003045345
0.00345418958522
0.0034169122518
0.00337828938102
0.00333846518585
0.00329763548995
0.0032560251528
0.00321386485462
0.00317137678253
0.0031287667985
0.00308622111692
0.00304390864089
0.00300199299948
0.00296050260321
0.00291946070954
0.00287898049723
0.00283915415206
0.00280005722241
0.00276175089893
0.00272428356885
0.00268769196276
0.00265200184616
0.00261722818633
0.00258337449251
0.00255043121153
0.00251837376039
0.00248717051374
0.00245683867885
0.00242786525036
3.44834980006e-05
5.98930872942e-05
6.8223789241e-05
7.22290771626e-05
7.5510743957e-05
8.14290678018e-05
9.29994908484e-05
8.91749209408e-05
8.77694860337e-05
8.72142066674e-05
8.69881524521e-05
8.71628849838e-05
8.82246347633e-05
9.07170739339e-05
9.41092834089e-05
9.78120298348e-05
0.000101054202688
0.000104001221956
0.000107201330829
0.000111254441829
0.000116496656822
0.000122663605521
0.000129081610379
0.000135329681725
0.000141579537032
0.000148237418603
0.000155540215789
0.000163350804364
0.000171321649208
0.000179247774317
0.000187234411377
0.000195514860196
0.000204236608985
0.000213362164874
0.000222752638702
0.000232308432986
0.000242044769237
0.000252030982283
0.000262372096279
0.000273323650899
0.000285565829715
0.000300687210837
0.000322042901476
0.000356176947237
0.000414643649996
0.000514802477304
0.000676151047905
0.000909865178653
0.00120829670322
0.00154640678902
0.00189413432058
0.00222742411308
0.00253169163718
0.0028003576152
0.00303207492618
0.00322839315787
0.00339224816527
0.00352702945663
0.00363613853039
0.00372278834522
0.00378991719241
0.00384017069015
0.00387590214745
0.00389919504503
0.0039118887908
0.0039155986825
0.00391173412785
0.0039015164702
0.00388599747814
0.00386607358766
0.00384249978423
0.00381590352542
0.0037867986837
0.00375559527521
0.00372260990765
0.00368807718139
0.00365216262123
0.00361497617206
0.0035765902619
0.00353706405631
0.00349647216062
0.00345492698548
0.00341258051214
0.00336961113922
0.00332620743704
0.00328255635669
0.00323883567227
0.00319521023253
0.00315183365514
0.00310885257162
0.00306622062686
0.00302405235959
0.00298245378987
0.00294151616007
0.00290131623222
0.00286191764383
0.00282337214166
0.002785720606
0.00274899370223
0.00271321214509
0.0026783862693
0.00264451496626
0.00261158459182
0.00257957803541
0.00254852642013
0.00251888632278
3.52975110376e-05
6.15392281814e-05
7.01465289316e-05
7.40317444993e-05
7.63996056979e-05
7.91210663392e-05
8.49154576873e-05
9.65926316345e-05
9.22401627516e-05
9.03895502109e-05
8.9632070967e-05
8.93088320481e-05
8.9390615715e-05
9.03020524831e-05
9.25735655268e-05
9.57691397844e-05
9.9376421013e-05
0.000102598551057
0.000105540568857
0.000108721288668
0.000112725703618
0.000117879107829
0.000123901411098
0.000130057619409
0.000135843118952
0.00014136740079
0.000147082644313
0.000153457831963
0.000160697402725
0.000168600333639
0.00017674703658
0.000184867543767
0.000193028389333
0.000201440182306
0.000210224927397
0.000219308990251
0.000228510525764
0.000237718276349
0.000246985519959
0.000256433791847
0.000266142084016
0.000276100080685
0.000286243767632
0.000296530794686
0.000306991808865
0.000317754002382
0.00032912910324
0.000341884346248
0.000357836449746
0.000380976827818
0.000419357989129
0.000487361951278
0.000606092937163
0.000797153101056
0.00106855299426
0.00140452667636
0.00177233405223
0.0021386757256
0.00248022234251
0.00278492934469
0.00304890721031
0.00327298452321
0.0034602709405
0.00361471856994
0.00374038209258
0.00384104890138
0.00392011733711
0.00398058393264
0.0040250681871
0.00405585320636
0.00407492543285
0.00408401335064
0.00408462318867
0.00407806397848
0.00406546987177
0.004047818745
0.00402594978077
0.00400057611849
0.00397229720996
0.00394161045201
0.00390892239937
0.00387455673567
0.00383876296636
0.00380172545074
0.00376357432798
0.00372439621191
0.00368424916744
0.00364318163041
0.00360125348443
0.00355855283447
0.00351519914549
0.00347133573198
0.00342711846291
0.00338270610722
0.00333825319519
0.00329390582929
0.00324980325999
0.00320603101242
0.00316258828511
0.00311960342303
0.00307718315106
0.00303541863913
0.00299438764224
0.00295415583315
0.00291477788255
0.00287629831052
0.00283875213056
0.00280216513587
0.00276655371303
0.00273192417274
0.00269827238483
0.00266559342623
0.00263392888068
0.00260370549329
3.68800121484e-05
6.42121902375e-05
7.30402726301e-05
7.69650835119e-05