/*--------------------------------*- C++ -*----------------------------------*\
| =========                 |                                                 |
| \\      /  F ield         | OpenFOAM: The Open Source CFD Toolbox           |
|  \\    /   O peration     | Version:  2.3.1                                 |
|   \\  /    A nd           | Web:      www.OpenFOAM.org                      |
|    \\/     M anipulation  |                                                 |
\*---------------------------------------------------------------------------*/
FoamFile
{
    version     2.0;
    format      ascii;
    class       volScalarField;
    location    "300";
    object      p;
}
// * * * * * * * * * * * * * * * * * * * * * * * * * * * * * * * * * * * * * //

dimensions      [0 2 -2 0 0 0 0];

internalField   nonuniform List<scalar> 
10011
(
-12.6177758198
-15.3467916855
-16.2514809048
-16.5782006993
-16.8589719974
-17.1486279117
-17.446321875
-17.7650107617
-18.1199309637
-18.5246914029
-18.9943202432
-19.5488801621
-20.2175903773
-21.0457970745
-22.1062319376
-23.5293172898
-25.6317607012
-29.5415532988
-16.406017413
-16.7845387861
-16.9521508702
-16.9936652322
-17.116917462
-17.3137286671
-17.5552783866
-17.8381873481
-18.1690169574
-18.5566219202
-19.0130947349
-19.5563853422
-20.2138479586
-21.026657624
-22.0593506007
-23.4209501877
-25.2955499206
-27.7661949338
-16.2507633011
-16.1188782608
-16.3768275669
-16.5974075533
-16.8357981736
-17.1077606161
-17.4014554017
-17.7200659185
-18.0744454763
-18.4764224206
-18.9396034016
-19.4819417116
-20.1279900188
-20.9129215573
-21.8884236539
-23.1270764618
-24.7134189628
-26.6002401719
-16.1624060994
-16.1745344956
-16.5033503528
-16.757126502
-16.9829869058
-17.2288122547
-17.4970139907
-17.7924885668
-18.1254595892
-18.5067336262
-18.9482983261
-19.4652494249
-20.07752623
-20.8115972879
-21.7008061865
-22.7790564994
-24.0514211047
-25.3750884103
-16.1917932055
-16.2636608124
-16.5319346043
-16.7530769324
-16.9581397297
-17.1895597033
-17.4495163199
-17.7395933653
-18.0669494226
-18.4402224168
-18.8691564673
-19.3656645307
-19.9442497332
-20.6215036543
-21.4127093396
-22.3203403409
-23.3026843951
-24.2000722468
-16.2550474736
-16.3276288697
-16.5432973072
-16.7500215047
-16.9529473044
-17.1807180825
-17.4358696376
-17.7194119145
-18.0371250236
-18.3962157226
-18.8043243408
-19.269843554
-19.8015678672
-20.4065270478
-21.084692728
-21.8170535453
-22.5413468012
-23.1167004722
-16.3049835566
-16.3680397862
-16.548544509
-16.7429708751
-16.9405206684
-17.1598532961
-17.4046968056
-17.6762912493
-17.9789905992
-18.3180825835
-18.6987076336
-19.1255212017
-19.6015807898
-20.1255520458
-20.6863399944
-21.2537902297
-21.7640770252
-22.1104291731
-16.3384970478
-16.3951006209
-16.5529207491
-16.7343180061
-16.9237213468
-17.1335369912
-17.3674405063
-17.6263751244
-17.9132165027
-18.2314891601
-18.5840994678
-18.9726163548
-19.3958799485
-19.847276088
-20.3102480841
-20.7519910698
-21.115532275
-21.3231540756
-16.3624585515
-16.4143604023
-16.5540441711
-16.7226760268
-16.9032236609
-17.1032980937
-17.3259331401
-17.5716098174
-17.8419908578
-18.139037455
-18.4637458125
-18.8152247125
-19.1892619604
-19.5759401381
-19.9562391158
-20.2982290461
-20.553705307
-20.6661768537
-16.3817108091
-16.4287641857
-16.5508215717
-16.7051749543
-16.8747061717
-17.0627354732
-17.2712905444
-17.5003182292
-17.7502198063
-18.0213354883
-18.3127760155
-18.6214290866
-18.9406698098
-19.2585502332
-19.555663109
-19.8035298688
-19.9644359088
-20.0002345872
-16.3935486153
-16.4354066556
-16.5408492282
-16.6796341968
-16.8357030409
-17.00897093
-17.2002649738
-17.4088487598
-17.6338764522
-17.8741279068
-18.1270178293
-18.3876783855
-18.6479668362
-18.8953420062
-19.1119033901
-19.2743607324
-19.3555428554
-19.3319942335
-16.3945961134
-16.4310322499
-16.5208960756
-16.6429316368
-16.7829454778
-16.9384989841
-17.1091011102
-17.2932240661
-17.4888867561
-17.693518887
-17.903211914
-18.1120032935
-18.3112593578
-18.4891975197
-18.6308011019
-18.7186431956
-18.7348284397
-18.6666246323
-16.3808597185
-16.411749907
-16.486826271
-16.5910744984
-16.7125109461
-16.8472852402
-16.9936713926
-17.149350564
-17.3114260863
-17.4763409719
-17.6393943127
-17.7942927715
-17.9328922133
-18.0451957982
-18.1197521664
-18.1447113508
-18.1094691851
-18.0084233676
-16.347705751
-16.372983334
-16.4337968568
-16.5194044531
-16.6199823602
-16.731042506
-16.8499042442
-16.97360193
-17.0986464788
-17.2209748825
-17.3357061555
-17.4369480761
-17.5178017075
-17.5706103809
-17.5874913964
-17.5612385965
-17.4864177452
-17.3617221881
-16.2900548422
-16.3097049672
-16.3565887562
-16.4229279869
-16.5008358844
-16.5857576181
-16.6744604331
-16.7636167115
-16.8495449064
-16.9281972598
-16.9950917048
-17.0452994601
-17.0735826741
-17.0746967941
-17.0438362388
-16.9772420889
-16.872800049
-16.7315192279
-16.2028098607
-16.2168882669
-16.2501729633
-16.2970287
-16.3512591363
-16.408626846
-16.4657776314
-16.5193912101
-16.5660085035
-16.6020575967
-16.6238840339
-16.627823753
-16.6103614414
-16.5683680773
-16.4993806335
-16.4019368979
-16.2758383129
-16.1231480092
-16.0816152176
-16.0902578932
-16.1104984166
-16.1383456936
-16.1690681371
-16.1989733424
-16.2249572336
-16.2440688915
-16.2534243391
-16.2502487005
-16.2319365928
-16.1961333631
-16.1408489186
-16.0645934005
-15.966506009
-15.8465062433
-15.7053805276
-15.5455615751
-15.9355368869
-15.9395703393
-15.9488634415
-15.9606148369
-15.9712265189
-15.9775822086
-15.9770356484
-15.9672179762
-15.945974207
-15.9113897435
-15.861840823
-15.79604807
-15.7131338144
-15.6126771179
-15.4947500048
-15.3599764966
-15.2095470356
-15.0459494438
-15.7902548226
-15.7911956648
-15.7930699816
-15.7937855052
-15.7903685573
-15.7800749022
-15.7607082169
-15.7304799143
-15.6878882745
-15.6317216327
-15.5610948319
-15.4754725272
-15.3746831959
-15.2589278813
-15.1287714213
-14.9851646808
-14.8294323535
-14.6640448297
-15.6598325019
-15.6589390189
-15.6565517776
-15.6509013389
-15.6389893554
-15.6181437441
-15.5865747028
-15.5430164953
-15.4864871746
-15.4163010422
-15.3321027081
-15.2338595813
-15.1218456544
-14.9966265946
-14.8590327603
-14.7101685097
-14.5513910372
-14.3851496306
-15.5447227848
-15.5427304558
-15.5385567346
-15.530349607
-15.514166301
-15.4871667943
-15.4480569519
-15.3960621211
-15.3305968391
-15.2513764891
-15.1584473525
-15.0521369985
-14.9330176602
-14.801885107
-14.6597276393
-14.5077348758
-14.3472746503
-14.1808306614
-15.44382486
-15.4407738727
-15.4369584772
-15.4296017584
-15.4123328728
-15.3821950375
-15.3387171051
-15.2815758556
-15.2104528705
-15.1253844575
-15.0267467071
-14.9151430944
-14.7913594908
-14.6563474227
-14.5111926006
-14.3571247781
-14.1954880685
-14.0287909301
-15.35571785
-15.3504772352
-15.3492814004
-15.3462934189
-15.3304542084
-15.299352839
-15.2538604632
-15.1940025477
-15.1196330574
-15.0310867283
-14.9290211257
-14.8142446633
-14.6876923126
-14.5504223045
-14.4035860148
-14.2484424916
-14.0863306732
-13.91992898
-15.2791748718
-15.268826765
-15.2729066846
-15.2772348063
-15.2640102046
-15.2331659575
-15.1871107634
-15.1258317019
-15.0493546139
-14.9584167226
-14.8539767932
-14.7370225383
-14.608607515
-14.4698655785
-14.3219756158
-14.1661686899
-14.0036643317
-13.8370847314
-15.2127147176
-15.1933135302
-15.2100342704
-15.2246762301
-15.2138854408
-15.1846294122
-15.1404319639
-15.0802265988
-15.0039882833
-14.9128176815
-14.8079138139
-14.6904063249
-14.5614635935
-14.4223101338
-14.2741812605
-14.1183264829
-13.9559331886
-13.7899488759
-15.1514748383
-15.1059633501
-15.1519459645
-15.181344707
-15.1686177216
-15.1365043748
-15.0906940233
-15.029131384
-14.9518609697
-14.8601755987
-14.7552350379
-14.6380765642
-14.509808415
-14.3716145556
-14.2246838732
-14.070172233
-13.908987048
-13.743512794
-15.1335963055
-15.0020005306
-15.1017909904
-15.1731379617
-15.180231877
-15.1596090445
-15.1188797524
-15.0576659258
-14.9782687158
-14.8833538704
-14.7747413384
-14.6538408827
-14.5220033034
-14.3805682957
-14.2308259967
-14.0739985168
-13.9110020546
-13.7445712204
-15.2241783875
-14.8763156139
-14.9125335225
-14.955671457
-14.9710612398
-14.9751499733
-14.9596599101
-14.9206788887
-14.860587587
-14.7822408062
-14.6876552449
-14.5785566506
-14.4566584627
-14.3236487181
-14.1811425215
-14.030659912
-13.8732378334
-13.7113468625
-15.5195950509
-15.5679237868
-15.5609204494
-15.428151826
-15.3181255517
-15.2378991275
-15.1597841807
-15.073369285
-14.9775571954
-14.8721575927
-14.7568438504
-14.6317049671
-14.4973107828
-14.3545392099
-14.2044555508
-14.0483015826
-13.8871935617
-13.7254091319
-11.824320034
-14.0009091133
-14.7593157144
-14.9198259168
-14.9776336689
-15.0043373154
-14.9945321031
-14.9532242595
-14.8884191552
-14.8049145796
-14.7053406039
-14.5916898181
-14.4658028996
-14.3294270538
-14.1842496999
-14.0320309494
-13.8744795142
-13.7189923849
18.6409738465
18.9269070198
20.0083113683
19.4562709797
18.9468118018
18.7160223085
18.5834921366
18.4569957898
18.3371290854
18.232799905
18.1427660369
18.0634774559
17.9929334918
17.9301266591
17.8742885405
17.82476928
17.7810775045
17.7429657917
17.7104985487
17.6838859807
17.663493901
17.6500805461
17.6449677909
17.6503152697
17.6696357435
17.708897276
17.7784413213
17.9024075587
18.1042598783
17.705033364
18.0003779922
18.2663754481
18.6766256358
19.0285209214
19.6500093461
19.4025532495
18.97564808
18.7341739702
18.5866554767
18.4543749062
18.3323114517
18.22658723
18.1356734544
18.0560557415
17.9856018245
17.9231366575
17.867776887
17.8188065203
17.7757136153
17.738241437
17.7063677251
17.6802434592
17.6602562872
17.6471686586
17.6422816292
17.6476981151
17.6667862343
17.7051507265
17.7718266136
17.8864195441
18.0442714174
16.8104404857
17.0196130321
17.1794642998
17.3927650867
17.6993973538
17.9572591689
18.2330790689
18.5948808442
18.8902326314
19.2551947678
19.1634060814
18.8725864443
18.6673273171
18.5315140159
18.4114092481
18.2997590006
18.2010886823
18.1148909007
18.0387054495
17.9708955832
17.910511915
17.8568209832
17.809216422
17.7672655061
17.7307704685
17.6996886202
17.6741387752
17.6545195029
17.6415636259
17.6364805197
17.6411771457
17.6585900352
17.6933498074
17.7518052723
17.8468092735
17.95491363
16.0444097534
16.2262480958
16.3560434511
16.5376332376
16.7953785001
16.9743585304
17.163731199
17.3988661356
17.694900717
17.9393706191
18.2023632932
18.4978884347
18.7491998588
18.9959920221
18.972988248
18.7811643024
18.612039879
18.4863709495
18.3746316446
18.2705279321
18.1771932566
18.0947011039
18.021361681
17.9558679323
17.8973883139
17.8452668494
17.7989577572
17.7580947272
17.7224996483
17.692088603
17.6669513119
17.6474571897
17.6342645932
17.6284285718
17.6315569521
17.6459802873
17.6750859048
17.7223431685
17.7947045708
17.8602857496
15.3155941337
15.4837472966
15.6028562654
15.774109817
16.019726759
16.1790374652
16.3405492217
16.5416258991
16.7926013216
16.9769841497
17.1752948498
17.4096043721
17.6633850469
17.894873237
18.1357311519
18.3881565678
18.6047328814
18.7858159264
18.7920337447
18.6685138083
18.5368412344
18.4273067015
18.3273258782
18.2331554856
18.1472102573
18.0700545083
18.0007542689
17.9384235019
17.882441262
17.8322925532
17.7875369879
17.7479191085
17.7132710521
17.6834695761
17.6586064969
17.639001456
17.6252076639
17.6180826071
17.6188716347
17.6292251805
17.6512639231
17.6859717739
17.7360600002
17.7671246547
14.6039553119
14.7559475698
14.8705114915
15.040078585
15.2844125839
15.435427211
15.585926402
15.7779109761
16.0199920099
16.1874767524
16.3599745557
16.5638111339
16.7789122211
16.9646487747
17.1618832941
17.3835105251
17.6162589126
17.8390897012
18.060961764
18.2808644006
18.4674992497
18.6093973433
18.6310944386
18.5544930554
18.4556983796
18.3636738458
18.2761519989
18.1921859458
18.1140470822
18.042710634
17.9778780108
17.9190633188
17.8658646972
17.8179110155
17.7748886395
17.7366258981
17.7029499226
17.6737259334
17.6490407012
17.6291475631
17.614474083
17.6056559209
17.6035541626
17.6091494074
17.6234278854
17.6454651929
17.6752199247
17.6785912039
13.7917338404
13.923636412
14.0160834598
14.1469521448
14.3259734659
14.5706051147
14.7076009794
14.8503144323
15.0425164421
15.2859756993
15.447779505
15.610771503
15.8068549923
16.0118667794
16.1810464071
16.3557711944
16.5515328269
16.7541682713
16.9452335626
17.1417870546
17.3519932161
17.5683741331
17.7780987057
17.9814634602
18.1753619384
18.3379713779
18.4559403329
18.4872394952
18.4430971624
18.3714086464
18.2965227674
18.2216159739
18.1479237081
18.0778462435
18.0126989873
17.9526944723
17.8977065872
17.8475492867
17.8019972256
17.7608882451
17.7240931912
17.6914227815
17.6627731916
17.6382079267
17.6179042188
17.6021545495
17.5913661574
17.5860258189
17.5865057166
17.5928535307
17.6027855993
17.6146322921
17.5958921225
13.0591835998
13.1853555697
13.2729208419
13.3940388996
13.5580087217
13.7818232264
13.8818191517
13.9878207342
14.1463795874
14.3417505366
14.5756186647
14.7244912512
14.8810301198
15.0784396245
15.2840983517
15.4481064993
15.6146970414
15.8025475355
15.9949515549
16.1716516075
16.3498540962
16.5394482974
16.7338631793
16.9233825366
17.1153743504
17.3146229629
17.5165677883
17.712515273
17.8994382372
18.0728551458
18.2170640538
18.3201071172
18.3579004976
18.3366037527
18.2867501804
18.2276837874
18.1649954019
18.1013399847
18.0393164489
17.9805123934
17.9255377477
17.8745738544
17.8276331184
17.7846441072
17.7455810337
17.7103313995
17.6787024557
17.650631835
17.6261496031
17.6053524801
17.5883960129
17.5754659449
17.566704521
17.5619619009
17.5605527306
17.5592893332
17.5556656127
17.519290096
12.3253243035
12.4600671171
12.5518292849
12.6735845437
12.835100627
13.0562437823
13.1467476654
13.245771027
13.3900360285
13.5628997775
13.7616040656
13.8759757853
13.9978488576
14.1715167485
14.3752620797
14.5772461157
14.7352847939
14.8988766852
15.087125998
15.2784365443
15.4503304305
15.621118541
15.8025346528
15.9869745217
16.1640645629
16.3412747712
16.5248334397
16.7118608162
16.8968872781
17.0829036007
17.2722062188
17.4614919891
17.6445008106
17.8171005925
17.9742911219
18.1045056625
18.1979576919
18.2404394211
18.2356171468
18.2032771098
18.1583634722
18.1071756973
18.053138476
17.9990038011
17.9465578733
17.8967078034
17.8498858101
17.8062788625
17.7659872318
17.7290650022
17.6954040767
17.6648565122
17.6373771312
17.6129592174
17.5916200986
17.5733827943
17.5582278871
17.5459938539
17.5361028231
17.5273252262
17.515922364
17.4990795681
17.4486171076
11.5329643855
11.685926482
11.7890046695
11.9195184931
12.089477297
12.322681234
12.4202768952
12.5238516182
12.6700911173
12.840993975
13.0316373895
13.1367390853
13.2454552851
13.3971322811
13.5731335409
13.7444699057
13.8767254696
14.0187354096
14.1974663721
14.3953271568
14.5874243153
14.7566239526
14.9248960927
15.1044816804
15.2856976582
15.4573017464
15.6270250433
15.8022381252
15.9798158964
16.1541935706
16.3286224885
16.506701133
16.6870297812
16.8664611775
17.0458919519
17.2260258296
17.4041711208
17.575529932
17.7358118903
17.8800696809
17.9996168094
18.0867487259
18.1328250431
18.140204001
18.121953495
18.0894721285
18.0488896361
18.0039269146
17.9573997679
17.9112178225
17.8664988772
17.8238688451
17.7836693086
17.7461673721
17.7114534783
17.6794177744
17.6499859687
17.6231150001
17.5987596476
17.5768608913
17.5573184032
17.5399290132
17.5242733108
17.5094358778
17.4938046887
17.4733510004
17.4452830258
17.3835381863
10.6682635479
10.8391437998
10.9539946788
11.0956315663
11.2784569311
11.5311250322
11.6430172291
11.7576728245
11.9151092938
12.096986978
12.2974846723
12.4103927931
12.5233205034
12.6754745832
12.8463454871
13.0050940432
13.1218476452
13.2431465815
13.3970557569
13.5712421553
13.7435058734
13.8988551044
14.0587718044
14.2382849254
14.4276632627
14.6117384448
14.7821601238
14.9492762255
15.1211502574
15.2940975418
15.4623700152
15.6293288889
15.7992928863
15.971010773
16.1415560627
16.3122832539
16.4851126148
16.6592532829
16.8327556112
17.0054848586
17.1771921128
17.3455244001
17.5065982277
17.6563674921
17.7902605541
17.9016282609
17.9845076699
18.033469275
18.0501267173
18.0432923912
18.0216282502
17.9906939287
17.9541949511
17.9149189781
17.8748292739
17.835180311
17.7967388865
17.7600005217
17.7253381041
17.6928574187
17.6624876954
17.6342068566
17.6079685459
17.5836908348
17.5612433945
17.5404147885
17.520841969
17.5018938961
17.4823990477
17.460494631
17.4320473687
17.3944801573
17.3236759781
9.56544011162
9.75468369395
9.8773741207
10.0160554253
10.18273898
10.3838446604
10.661434605
10.788723977
10.915633892
11.087858192
11.2864548069
11.5038277046
11.630943282
11.7559397844
11.9207084955
12.1034721745
12.2707342904
12.3935587341
12.5160873565
12.6651745366
12.8272124035
12.9806696949
13.1154525251
13.2544188646
13.4157574904
13.5928847735
13.7700309419
13.937675524
14.1051638075
14.2811045935
14.461168448
14.6370120776
14.8043146181
14.9682684782
15.1339342068
15.3001876501
15.4642764974
15.6277334379
15.7929835177
15.9595744932
16.1259520418
16.2925827722
16.4603718132
16.6287552736
16.7963658733
16.9625713461
17.1265858043
17.2862752738
17.4383671741
17.5792147943
17.7047527021
17.8098026778
17.8897738083
17.9411288395
17.9650237466
17.9675292129
17.9552404139
17.9330080312
17.9043371042
17.8719112111
17.8376880452
17.8029952967
17.7686975334
17.7354428959
17.7036466702
17.673407745
17.6447370331
17.6176413326
17.5920671986
17.5678980158
17.5449388432
17.5228802769
17.5012243227
17.4791712585
17.4553640332
17.4277914201
17.3923429513
17.346752008
17.2686617205
8.39621386614
8.59937205
8.7297925743
8.87538434388
9.05159713829
9.26508947279
9.5617846569
9.69788900977
9.82739595507
9.9907720014
10.1878815088
10.4039984963
10.636644999
10.7753769382
10.9126131943
11.0934209141
11.2935239679
11.4759631249
11.6127163616
11.7481217777
11.9097816145
12.0824753343
12.2423651227
12.379013967
12.5129315915
12.6616671137
12.8201850753
12.9765604128
13.1265883229
13.2814243229
13.4507700141
13.6301158845
13.8086507298
13.9800330557
14.1484648867
14.3190998392
14.4905225771
14.6585924682
14.8212279685
14.9812009989
15.1416180437
15.3024010603
15.4623254023
15.6221217385
15.7831166743
15.9451642887
16.1073914719
16.2698451282
16.4328380193
16.5958590105
16.7578203676
16.9178542708
17.0748986694
17.2269788803
17.3712787782
17.5045777307
17.6233408341
17.7234741386
17.8014336495
17.8548246962
17.8845002491
17.8947313552
17.8905663757
17.876142934
17.8546693777
17.8286714385
17.8000538651
17.7701651436
17.7399487504
17.7101632437
17.6812232975
17.6532349995
17.6262913947
17.6004153621
17.5755444644
17.5515295987
17.5281187085
17.5049177146
17.4813179058
17.456389074
17.4286474994
17.3960100824
17.3544729835
17.3021121182
17.2181626046
6.97047849126
7.18943296664
7.32752797804
7.47573800616
7.64385586164
7.83313848222
8.06112517354
8.38338702646
8.53342286814
8.67064975516
8.84398032724
9.05391981515
9.28388189
9.52794124412
9.67211878148
9.80905492377
9.98638521267
10.1950130314
10.4113499968
10.60560238
10.753841517
10.9024253828
11.0798303843
11.2691538786
11.4446667957
11.5963150352
11.7438947498
11.904169878
12.0701670333
12.2277442257
12.3720166946
12.5137298429
12.6647249846
12.8250598601
12.9887590226
13.1526420454
13.3203086312
13.4951460851
13.6737247827
13.8495043212
14.0189253322
14.1842703782
14.3489007518
14.5127778737
14.6741003383
14.8319769128
14.9879559697
15.1439531823
15.3002453161
15.4563442525
15.6126169777
15.7697772989
15.9277611487
16.0860253202
16.2444116982
16.402891327
16.5609350108
16.7175947346
16.8719003942
17.0226650562
17.1680576124
17.3056209839
17.432541341
17.5457786776
17.64205781
17.7186189226
17.7737775274
17.8081706456
17.82486634
17.8277559131
17.8203230681
17.8054409669
17.7854453378
17.7621508968
17.7368873761
17.7106812896
17.6843214925
17.6581940474
17.6324649165
17.6072737226
17.582653397
17.558531889
17.5347307533
17.5109478951
17.4867180335
17.461343477
17.4337970328
17.4025151355
17.3653985592
17.3186016201
17.2605342842
17.1718858896
5.46648236429
5.69994614641
5.84541959107
5.99839940353
6.17241232242
6.37059855986
6.61105452479
6.95565250511
7.11661441957
7.25779856239
7.4292263175
7.62386543264
7.84770424785
8.09291663836
8.35172368481
8.50525140123
8.64858374192
8.83665499766
9.05883392084
9.2877527789
9.4896695955
9.64186615076
9.79266123222
9.97400707557
10.1778558776
10.3833853539
10.5709827028
10.734915433
10.8963342987
11.072086669
11.2543931354
11.4279833246
11.587386733
11.7417095767
11.9006957817
12.0621863591
12.2190297297
12.3693430423
12.5196716789
12.6778929841
12.8452205562
13.0175520981
13.1909354584
13.3649125563
13.5400746537
13.7144612284
13.8848279922
14.0496272138
14.2103718005
14.3693614626
14.5270757046
14.6828925976
14.8365244374
14.9888877373
15.1411883325
15.2937666715
15.4464730285
15.5994995708
15.7532141005
15.9075469481
16.0621094815
16.2166409462
16.3709099499
16.5243593815
16.6761114326
16.8251674481
16.9703027044
17.1098241382
17.2415737543
17.3631019706
17.4718119491
17.5650501647
17.6406434674
17.6973618313
17.7356808637
17.7578481954
17.766886642
17.7657085548
17.7568490981
17.7424388076
17.7241748313
17.7033483872
17.6810587723
17.6580593552
17.6346963305
17.6112249089
17.5878072314
17.5644801511
17.5411608862
17.5176449142
17.4935867037
17.4684625679
17.4415048344
17.4116176634
17.3771938014
17.3361567218
17.2848474221
17.2219767918
17.1295840591
3.89232322944
4.13121507494
4.2797385932
4.43545691455
4.61358756623
4.81929374609
5.07272115135
5.44308705747
5.61940044674
5.76577652472
5.94429062547
6.14875870111
6.38543770526
6.64551640612
6.91748237301
7.0778407273
7.22063134775
7.40482538917
7.62057740603
7.85764196257
8.0987658113
8.31021839034
8.47003046348
8.62811843107
8.81948292804
9.03480669681
9.25055207013
9.44535149758
9.61463888362
9.78157211979
9.96570128978
10.163909424
10.3623567205
10.5488732593
10.7213624807
10.8900859637
11.0647367934
11.2425901746
11.4153661166
11.5795180811
11.7389764162
11.8989971991
12.0597240889
12.2186748131
12.3761102313
12.5363411564
12.7037230319
12.8781228029
13.0555666316
13.2320583264
13.4061235779
13.5778174351
13.7464605017
13.9108293696
14.0705307018
14.2266892201
14.3809080515
14.5337908141
14.685267699
14.8353422644
14.9846018779
15.1338195013
15.2833016049
15.4330398175
15.5831370211
15.7337550143
15.8847984742
16.0359436443
16.1868770832
16.3372482673
16.4864766633
16.6337285571
16.7780139526
16.9181220462
17.0524975243
17.179233082
17.2962017131
17.4011843296
17.4920113064
17.5669475399
17.6250614597
17.6667060684
17.6935561591
17.7079799158
17.7124034153
17.7090418068
17.6998166724
17.6862913744
17.6697317837
17.6512356763
17.6314895347
17.610852503
17.5896344509
17.5680097034
17.5460153133
17.5235576014
17.5004085449
17.4761859147
17.4503185603
17.4219857317
17.3900454317
17.3528745101
17.3084438249
17.2532944114
17.1863899806
17.0910474157
2.0158782666
2.25846344187
2.41103401773
2.57214943173
2.75374120121
2.94537375462
3.16158461551
3.43449514477
3.84021484633
4.03336242028
4.18334907687
4.36973089534
4.58540579721
4.83653474722
5.11472210013
5.40345713928
5.57415024517
5.72063230909
5.91387411922
6.14333955664
6.39558811458
6.65021579719
6.86947114685
7.03245832225
7.19102045913
7.38293568948
7.60183468646
7.832991372
8.05955935864
8.2628425692
8.43980616326
8.6145652708
8.80765785993
9.01538027695
9.22252530375
9.41631080937
9.59545550547
9.77176521534
9.9567370446
10.1498666925
10.34312725
10.5292973713
10.7071054091
10.8814534839
11.0574709373
11.2344078159
11.4079915386
11.5758571989
11.739557554
11.9021053757
12.0649600199
12.2284738046
12.3938264599
12.5631372308
12.7375053249
12.9152906967
13.0929982214
13.2676590145
13.438222395
13.6049320127
13.7678727289
13.9268490212
14.0820105608
14.234229737
14.384636783
14.5338097585
14.6819128861
14.8290841741
14.9757340626
15.1223687201
15.2692396902
15.4163850673
15.5638553787
15.7116894167
15.8597612978
16.0077731561
16.1553814082
16.3021675001
16.4475399607
16.5906962895
16.7306757971
16.8663149586
16.9961867625
17.1186036234
17.2317149291
17.3336248295
17.4225376795
17.4970498946
17.5564310922
17.6009401193
17.6318428422
17.6510107963
17.660462712
17.6621218038
17.6577052877
17.6486402088
17.6361801966
17.6213434129
17.6047357789
17.5867812302
17.5678084635
17.5479953799
17.5273757723
17.5058451294
17.4831540703
17.4588900008
17.4324435865
17.4029554386
17.3692548062
17.3297231867
17.2823927489
17.2240076994
17.1537280989
17.0561034793
-0.225340486945
0.0268302851555
0.181680886096
0.35216513603
0.547868831083
0.751105192344
0.958210690424
1.19513527801
1.49697623669
1.9418577981
2.14831630989
2.29210108028
2.48208588616
2.69908790846
2.93307417555
3.20571751009
3.51064226075
3.81523270977
3.98629918675
4.12914324822
4.33195701328
4.57992823044
4.85276500505
5.12486435547
5.35325927677
5.52034422345
5.68350557656
5.88556519916
6.11864887389
6.36406716663
6.60179199862
6.81178484292
6.99262754781
7.17074936916
7.36856746699
7.58488948379
7.8083656481
8.02627381038
8.22861530804
8.41565146918
8.59983776311
8.79292711269
8.99421776912
9.1952415394
9.38871988453
9.57396312227
9.75685125702
9.94359538204
10.1345081073
10.3253853669
10.5121154377
10.69369458
10.8723345594
11.050622183
11.2284960746
11.4038268561
11.5751217118
11.743041197
11.9096550858
12.0769888379
12.246380222
12.4185621517
12.5936110252
12.7706358346
12.9476392575
13.1222091763
13.2926551143
13.4585650469
13.6203670241
13.7784658078
13.9330941882
14.0846075931
14.233694056
14.381168711
14.5275397342
14.6730576148
14.8179143376
14.9624188657
15.1069148089
15.2515970076
15.396510858
15.541668722
15.6870352017
15.8324579394
15.9776442937
16.122233474
16.265772522
16.4076654558
16.5471419887
16.6832807949
16.814980909
16.9409403608
17.0596586001
17.1695239843
17.2689093166
17.3563164588
17.4305922356
17.4911461048
17.5381634174
17.5726132563
17.5959867064
17.6099653295
17.6162125201
17.6162558791
17.6114100141
17.6028620387
17.5915123258
17.5779396064
17.5626179662
17.5458764295
17.5278899449
17.5086865886
17.4881506009
17.4660137695
17.4418381286
17.4149846243
17.3845663971
17.3493977686
17.3078785296
17.2581091186
17.1970323187
17.1239445938
17.0246026953
-2.38900463548
-2.14532343327
-1.99307239547
-1.81225855929
-1.60733463852
-1.39452410387
-1.14551001935
-0.815272166632
-0.322685944291
-0.0824549817562
0.069450975007
0.268075944256
0.491922049341
0.721430577397
0.968220485307
1.26569481158
1.60274067922
1.93132791711
2.10172070751
2.23378150049
2.43472295288
2.68034824412
2.94891862278
3.24050713044
3.53282523746
3.773146434
3.94009431284
4.10332156557
4.31488984063
4.56372755736
4.82635900726
5.0789436314
5.29844927111
5.48458095212
5.66871926325
5.87600395176
6.10422577117
6.33964322792
6.56761944679
6.77723310438
6.96944520367
7.15883470202
7.35893288507
7.57053027489
7.78649500704
7.9984064097
8.20058369228
8.39345501385
8.58367507146
8.77784379013
8.97622520968
9.17434637404
9.36805002085
9.5567585387
9.74347008569
9.93161496978
10.1216952917
10.3115627933
10.498864329
10.6828495582
10.8645560108
11.0453462661
11.2253137653
11.4033279678
11.5784463516
11.7509928118
11.9224238996
12.0944728794
12.2682013212
12.4436039303
12.6198254311
12.7955499764
12.9692513173
13.1395240294
13.3055505941
13.4672926173
13.6252125729
13.7797762849
13.9313428353
14.0803099655
14.2272351489
14.3727343343
14.5172403511
14.6610159731
14.8042644989
14.9472300018
15.0901568846
15.2331916251
15.3763656036
15.5196618361
15.663000978
15.8062066347
15.9489868403
16.090971095
16.2316914591
16.3705590219
16.5068315182
16.6396324874
16.7679292754
16.8905288132
17.0060916965
17.1132008849
17.2104510096
17.2965712065
17.3705998886
17.4320494644
17.4810557651
17.5183816713
17.5452375279
17.5630386992
17.5732300595
17.5771790533
17.576115783
17.5710715486
17.5628432541
17.5520587224
17.5391879044
17.5245484677
17.5083064197
17.4904808775
17.4709427521
17.4494058394
17.4254090118
17.398288851
17.3671372475
17.330761559
17.2875853428
17.2357761942
17.172463627
17.0970170631
16.9963952109
-4.34676982074
-4.09830316963
-3.94070994434
-3.74574800709
-3.518198074
-3.25559371392
-2.92226581713
-2.43188566784
-2.24739239751
-2.08840216938
-1.87543755343
-1.63548313881
-1.37215573356
-1.04887462973
-0.677403694604
-0.307117773953
-0.117776427024
0.00947325933537
0.210249672683
0.455547352519
0.716215072222
0.996117971189
1.30590652597
1.61917744288
1.87363538177
2.04329708896
2.20387540254
2.41607128741
2.66723407036
2.93678485277
3.21452062435
3.48148351986
3.71152090351
3.90289801134
4.09216840511
4.30899596732
4.55032292999
4.79972440036
5.0403581009
5.25990203399
5.4597250665
5.65686125976
5.86636414213
6.08877968669
6.31560708411
6.53722331866
6.7473755962
6.94691781307
7.1439096262
7.34633074741
7.55536936227
7.76690285715
7.97563416201
8.17810452626
8.37448120841
8.56838925849
8.76363891966
8.96077298865
9.15748129676
9.35137188585
9.54199300281
9.73094870826
9.92021583258
10.110260547
10.2999719915
10.4879741056
10.67375007
10.8578251802
11.0409760963
11.2233270111
11.4042446302
11.5830765196
11.759907265
11.9356464048
12.1114396577
12.287731978
12.4639599195
12.6390562127
12.8119864499
12.9818842012
13.1480889815
13.3103060599
13.4686872939
13.6236709004
13.7756990077
13.9251421806
14.0723807753
14.2178713922
14.3620945706
14.5054128229
14.6480722657
14.7902611559
14.9321744673
15.0739898016
15.2158095841
15.3576470239
15.499459121
15.6411362672
15.782486193
15.9232125453
16.0629415665
16.2012032297
16.3374179354
16.4708757568
16.6007445618
16.7260577823
16.8457230662
16.9585336199
17.0632364815
17.1586041898
17.243549459
17.3172580555
17.3793214274
17.4298436726
17.4694424507
17.4991206157
17.5200846805
17.5335981471
17.5408850038
17.5430907575
17.5411252187
17.5356955924
17.5274358495
17.5168078653
17.5041152945
17.4895120361
17.4730054894
17.4544522612
17.433548363
17.4098118766
17.3825586838
17.3508645421
17.3135344553
17.2690189023
17.2155468758
17.1504243586
17.0730354598
16.9716002614
-6.44572633081
-6.18323525909
-6.01496078466
-5.80336994474