/*--------------------------------*- C++ -*----------------------------------*\
| =========                 |                                                 |
| \\      /  F ield         | OpenFOAM: The Open Source CFD Toolbox           |
|  \\    /   O peration     | Version:  2.3.1                                 |
|   \\  /    A nd           | Web:      www.OpenFOAM.org                      |
|    \\/     M anipulation  |                                                 |
\*---------------------------------------------------------------------------*/
FoamFile
{
    version     2.0;
    format      ascii;
    class       surfaceScalarField;
    location    "300";
    object      phi;
}
// * * * * * * * * * * * * * * * * * * * * * * * * * * * * * * * * * * * * * //

dimensions      [0 3 -1 0 0 0 0];

internalField   nonuniform List<scalar> 
19742
(
3.08874033587e-06
4.48996897125e-08
3.01653138164e-06
7.22089713238e-08
2.95701193348e-06
5.95194638894e-08
2.89828578608e-06
5.87261636304e-08
2.84327491177e-06
5.50108896922e-08
2.79348285794e-06
4.9792070946e-08
2.74905557187e-06
4.44273044391e-08
2.70986547605e-06
3.91901129362e-08
2.67580273213e-06
3.40627596864e-08
2.64683309961e-06
2.89696470833e-08
2.6230444661e-06
2.37886472272e-08
2.60472058459e-06
1.83238940909e-08
2.59247291504e-06
1.22476810978e-08
2.58803533549e-06
4.43759031007e-09
2.5954167747e-06
-7.38142923537e-09
2.62418433553e-06
-2.87675513758e-08
2.70543783962e-06
-8.12534956971e-08
-2.39481243017e-07
2.94491909198e-06
3.46925578301e-06
3.18541790685e-08
3.46054375458e-06
8.09210137939e-08
3.44898533191e-06
7.10779003146e-08
3.43820028644e-06
6.95112232765e-08
3.42719085766e-06
6.60203324223e-08
3.41647989389e-06
6.05030499087e-08
3.40652471775e-06
5.43824964383e-08
3.39774273251e-06
4.79721129646e-08
3.39059149692e-06
4.12140089402e-08
3.38558775467e-06
3.39734019311e-08
3.38336078928e-06
2.60156245583e-08
3.38477869583e-06
1.69059983682e-08
3.39137959674e-06
5.64679027194e-09
3.40544444824e-06
-9.62725202346e-09
3.43068827822e-06
-3.26252505497e-08
3.47441410504e-06
-7.24933702324e-08
3.54679628754e-06
-1.5363567092e-07
-3.21468192833e-07
3.62878324388e-06
3.81001703343e-06
3.38320886113e-08
3.82071922571e-06
7.02188317605e-08
3.82608255409e-06
6.57145821835e-08
3.83236453559e-06
6.32292526868e-08
3.83852324882e-06
5.98616300764e-08
3.84461375301e-06
5.44125578679e-08
3.85111271255e-06
4.78835496223e-08
3.85845537681e-06
4.06294607535e-08
3.8670842973e-06
3.25850996231e-08
3.87751812692e-06
2.35395827691e-08
3.89043300194e-06
1.31007594707e-08
3.90682873091e-06
5.10278521005e-10
3.92805541236e-06
-1.55798827046e-08
3.95613578761e-06
-3.77076194529e-08
3.99451029103e-06
-7.0999746643e-08
4.04781773023e-06
-1.25800802641e-07
4.11648547335e-06
-2.22303407765e-07
-3.86220785753e-07
4.18123807198e-06
4.20700331101e-06
3.12351858446e-08
4.21849153649e-06
5.87306154528e-08
4.22624204281e-06
5.79640852641e-08
4.23444371156e-06
5.50275938412e-08
4.2432069209e-06
5.10984308976e-08
4.25257173458e-06
4.50477552127e-08
4.26291176742e-06
3.75435279834e-08
4.27458840349e-06
2.8952835436e-08
4.28797764199e-06
1.91958710534e-08
4.30355302064e-06
7.9642136337e-09
4.32195418772e-06
-5.30039873269e-09
4.34404043171e-06
-2.15759571134e-08
4.37103349712e-06
-4.25729405119e-08
4.40462224153e-06
-7.12963566752e-08
4.44664173455e-06
-1.13019233072e-07
4.49741423441e-06
-1.76573296242e-07
4.55003342268e-06
-2.74922590362e-07
-4.17471567784e-07
4.58128420998e-06
4.64193165744e-06
2.65111137486e-08
4.65240295577e-06
4.82593248419e-08
4.6611184581e-06
4.92485907991e-08
4.67030067209e-06
4.58453879719e-08
4.68044854962e-06
4.09505617849e-08
4.69157622386e-06
3.39200899515e-08
4.70394098694e-06
2.5178774091e-08
4.71786879055e-06
1.50250405803e-08
4.73372953385e-06
3.33513600436e-09
4.75198167851e-06
-1.02879232046e-08
4.77321543001e-06
-2.65341427376e-08
4.79817632333e-06
-4.65368434696e-08
4.82774895954e-06
-7.21455701437e-08
4.86275198357e-06
-1.06299374618e-07
4.903230109e-06
-1.53497352696e-07
4.94662316053e-06
-2.19966342382e-07
4.98406774252e-06
-3.12367167347e-07
-4.30903517554e-07
4.9974996976e-06
5.11977880855e-06
2.12814488564e-08
5.12979762707e-06
3.82405145958e-08
5.13945543884e-06
3.95907874149e-08
5.14967475743e-06
3.56260778928e-08
5.16097546378e-06
2.96498641494e-08
5.17341462172e-06
2.14809409216e-08
5.18721719896e-06
1.13762057045e-08
5.2027019626e-06
-4.59714725581e-10
5.22022760837e-06
-1.41905018882e-08
5.24021016125e-06
-3.02704686571e-08
5.26312652573e-06
-4.9450500134e-08
5.28948075778e-06
-7.28910689389e-08
5.31966668541e-06
-1.02331491602e-07
5.35362362101e-06
-1.40256304461e-07
5.3900743903e-06
-1.89948116509e-07
5.4251567937e-06
-2.55048740743e-07
5.45065504611e-06
-3.37865414687e-07
-4.34438485737e-07
5.45419001877e-06
5.64615717713e-06
1.61345715501e-08
5.65592315077e-06
2.84745489705e-08
5.66629625503e-06
2.92176911574e-08
5.67741618665e-06
2.4506154445e-08
5.68970473713e-06
1.73613219261e-08
5.7032512994e-06
7.93438711443e-09
5.71824846366e-06
-3.62095029075e-09
5.73497905097e-06
-1.71902941899e-08
5.75374977545e-06
-3.29612190723e-08
5.77487855289e-06
-5.13992390791e-08
5.798665467e-06
-7.32374076427e-08
5.82530744657e-06
-9.95330421893e-08
5.8547076665e-06
-1.31731705719e-07
5.88611486482e-06
-1.71663497139e-07
5.91751824208e-06
-2.21351488588e-07
5.94485847069e-06
-2.82388964277e-07
5.96151862676e-06
-3.54525565974e-07
-4.325387983e-07
5.95961894421e-06
4.40979542591e-06
1.24940100633e-08
4.416556635e-06
2.17133488638e-08
4.42430883549e-06
2.14654996154e-08
4.4327641479e-06
1.60508510697e-08
4.44212463301e-06
8.00084575721e-09
4.45247575205e-06
-2.41672300591e-09
4.4639323801e-06
-1.5077569832e-08
4.47666324213e-06
-2.99211482007e-08
4.49085154076e-06
-4.71495103078e-08
4.50666547614e-06
-6.72131674194e-08
4.52421835636e-06
-9.07902813513e-08
4.54348811391e-06
-1.18802793659e-07
4.56417068751e-06
-1.52414273654e-07
4.58544668809e-06
-1.92939492373e-07
4.60566639498e-06
-2.41571190557e-07
4.62206364353e-06
-2.98786208228e-07
4.6307974311e-06
-3.63259349264e-07
-4.29864655641e-07
4.62812329342e-06
5.14375749675e-06
8.66716154827e-09
5.15089112956e-06
1.45797244959e-08
5.15938383975e-06
1.29727980246e-08
5.16883023066e-06
6.60446875892e-09
5.17933841552e-06
-2.50733046109e-09
5.19095800056e-06
-1.40362996291e-08
5.20376818189e-06
-2.78877430071e-08
5.21789145844e-06
-4.40444172072e-08
5.23344613371e-06
-6.27041784466e-08
5.25050307084e-06
-8.42700979372e-08
5.26902987777e-06
-1.0931708199e-07
5.28879849999e-06
-1.38571410089e-07
5.3092428972e-06
-1.72858665338e-07
5.32926929441e-06
-2.12965884555e-07
5.34705869556e-06
-2.59360586859e-07
5.35998786107e-06
-3.11715369357e-07
5.3649136965e-06
-3.68185180056e-07
-4.24203032759e-07
5.35925207811e-06
5.99985295342e-06
4.6998803444e-09
6.00727023621e-06
7.1624511318e-09
6.01640068402e-06
3.84235966268e-09
6.02674039477e-06
-3.735232617e-09
6.03829549372e-06
-1.40624202117e-08
6.05106016978e-06
-2.68009667217e-08
6.06505700145e-06
-4.18845661931e-08
6.08033777696e-06
-5.9325184855e-08
6.0969287484e-06
-7.92951425515e-08
6.11477699807e-06
-1.02118340761e-07
6.13368634786e-06
-1.28226425449e-07
6.15322642034e-06
-1.58111476648e-07
6.17261384581e-06
-1.92246085348e-07
6.19058504128e-06
-2.30937074486e-07
6.20531460863e-06
-2.74090149771e-07
6.21448738017e-06
-3.20888136161e-07
6.21568743839e-06
-3.69385233872e-07
-4.15795600684e-07
6.20728001153e-06
6.99842134186e-06
6.47445365203e-10
7.00600539144e-06
-4.21588968772e-10
7.01563025314e-06
-5.78249255602e-09
7.02669920105e-06
-1.48041710411e-08
7.03910324308e-06
-2.64664529251e-08
7.05276869865e-06
-4.04664132057e-08
7.06764186683e-06
-5.67577258246e-08
7.08368019578e-06
-7.53635056844e-08
7.10079493463e-06
-9.64098739218e-08
7.11879197879e-06
-1.20115377874e-07
7.13730826573e-06
-1.4674270588e-07
7.15573542179e-06
-1.76538626614e-07
7.17313874785e-06
-2.09649405083e-07
7.18819872895e-06
-2.45997050508e-07
7.1992255772e-06
-2.8511699257e-07
7.20431915736e-06
-3.25981712251e-07
7.20175559925e-06
-3.66821670039e-07
-4.0468276229e-07
7.19064276511e-06
8.16318420328e-06
-3.41803497393e-09
8.17079869356e-06
-8.03606931769e-09
8.180709007e-06
-1.56927961724e-08
8.19225016746e-06
-2.63453218092e-08
8.20518974853e-06
-3.94060244553e-08
8.21936784443e-06
-5.46444998874e-08
8.23463614338e-06
-7.20260158145e-08
8.25083836976e-06
-9.1565724128e-08
8.26775586554e-06
-1.13327361841e-07
8.28505018951e-06
-1.37409694906e-07
8.30220911669e-06
-1.63901626223e-07
8.31849510284e-06
-1.92824606225e-07
8.3329081597e-06
-2.2406245539e-07
8.34418843512e-06
-2.57277319898e-07
8.35089354868e-06
-2.91822101013e-07
8.35158513614e-06
-3.26673294286e-07
8.34514594103e-06
-3.60382470619e-07
-3.90758713947e-07
8.33122189898e-06
9.5218115251e-06
-7.40281177668e-09
9.52928005509e-06
-1.55045891545e-08
9.53918238197e-06
-2.55951129175e-08
9.55081859259e-06
-3.79815224119e-08
9.56383288163e-06
-5.24203036248e-08
9.57796156884e-06
-6.87731772654e-08
9.59294772767e-06
-8.7012165896e-08
9.60851129077e-06
-1.07129278421e-07
9.62430260951e-06
-1.2911867322e-07
9.63985512125e-06
-1.5296219894e-07
9.65454845055e-06
-1.78594949138e-07
9.6675859723e-06
-2.05862120085e-07
9.67799737103e-06
-2.34473848055e-07
9.68468286662e-06
-2.63962808108e-07
9.68651544639e-06
-2.93654675981e-07
9.68250733722e-06
-3.22665178902e-07
9.67203177509e-06
-3.49906903813e-07
-3.73822012191e-07
9.65509507831e-06
1.11065744269e-05
-1.11814568454e-08
1.11136591039e-05
-2.25892558102e-08
1.11231584191e-05
-3.50944176862e-08
1.11343645043e-05
-4.91875974572e-08
1.11468119089e-05
-6.48676977211e-08
1.11601257837e-05
-8.20870422161e-08
1.11739372643e-05
-1.00823636729e-07
1.11878485114e-05
-1.21040517068e-07
1.12013979536e-05
-1.42668106968e-07
1.12140292516e-05
-1.65593489877e-07
1.1225074816e-05
-1.89640505419e-07
1.1233759165e-05
-2.14546462707e-07
1.12392281148e-05
-2.39942789183e-07
1.12406101643e-05
-2.65344852288e-07
1.12371120816e-05
-2.9015658555e-07
1.12281407599e-05
-3.1369385319e-07
1.12134357642e-05
-3.35201900469e-07
-3.53610729786e-07
1.11932244845e-05
1.29551164895e-05
-1.45905298399e-08
1.29615001444e-05
-2.89728998718e-08
1.2970086514e-05
-4.368077701e-08
1.29801772729e-05
-5.92783454585e-08
1.29912229277e-05
-7.59133420085e-08
1.3002747844e-05
-9.36119479615e-08
1.3014285494e-05
-1.12361276891e-07
1.30253472508e-05
-1.32102264548e-07
1.30354010913e-05
-1.52721938957e-07
1.30438582949e-05
-1.74050685305e-07
1.3050074878e-05
-1.95857080865e-07
1.30533712784e-05
-2.17842855052e-07
1.30530714091e-05
-2.39642912672e-07
1.30485601019e-05
-2.60833537703e-07
1.3039353881e-05
-2.80950358367e-07
1.30251745791e-05
-2.99514544523e-07
1.30060150889e-05
-3.16042404973e-07
-3.29820337057e-07
1.2982224703e-05
1.51113545414e-05
-1.74274132217e-08
1.51166409637e-05
-3.42593112419e-08
1.51236992153e-05
-5.07390172474e-08
1.51318524675e-05
-6.74315869818e-08
1.51405010982e-05
-8.45619613792e-08
1.51490995719e-05
-1.02210410978e-07
1.51571192524e-05
-1.20380946952e-07
1.51640281954e-05
-1.39011197856e-07
1.51692826062e-05
-1.57976340551e-07
1.517232749e-05
-1.77095560341e-07
1.51726087955e-05
-1.96138378083e-07
1.51695977978e-05
-2.14831849057e-07
1.51628258477e-05
-2.32870954998e-07
1.51519255189e-05
-2.49933201013e-07
1.51366721438e-05
-2.65696976567e-07
1.51170182776e-05
-2.79860670555e-07
1.50931174287e-05
-2.92141550674e-07
-3.02076445028e-07
1.50653735446e-05
1.76265277976e-05
-1.94534127166e-08
1.76302715203e-05
-3.80030217137e-08
1.76351344778e-05
-5.56019624441e-08
1.764047183e-05
-7.27689276003e-08
1.76456715693e-05
-8.97616883432e-08
1.76501655188e-05
-1.06704349363e-07
1.76534168214e-05
-1.23632238177e-07
1.76549116673e-05
-1.40506033556e-07
1.76541596698e-05
-1.57224332898e-07
1.76507013873e-05
-1.7363726828e-07
1.76441224043e-05
-1.89559386048e-07
1.76340729747e-05
-2.04782410399e-07
1.76202906913e-05
-2.19088663434e-07
1.76026225729e-05
-2.3226507369e-07
1.75810424836e-05
-2.4411687992e-07
1.75556603856e-05
-2.54478563505e-07
1.75267247081e-05
-2.63205867029e-07
-2.70007148478e-07
1.74946554209e-05
1.78271983256e-05
-2.04101752395e-08
1.78289258723e-05
-3.97305547898e-08
1.78309568584e-05
-5.76329368447e-08
1.78327528146e-05
-7.45648698838e-08
1.78337908823e-05
-9.07997455391e-08
1.78335946718e-05
-1.06508125243e-07
1.78317335926e-05
-1.21771150144e-07
1.78278197705e-05
-1.36592198252e-07
1.78215108974e-05
-1.50915452461e-07
1.78125168938e-05
-1.64643252024e-07
1.78006084837e-05
-1.77650969809e-07
1.77856268868e-05
-1.89800801203e-07
1.77674929149e-05
-2.0095468606e-07
1.77462136038e-05
-2.10985750507e-07
1.77218844065e-05
-2.19787677929e-07
1.76946862591e-05
-2.27280403957e-07
1.76648803115e-05
-2.3339991572e-07
-2.37957625223e-07
1.76328307997e-05
1.58815695217e-05
-2.06086196286e-08
1.58818603033e-05
-4.00213242674e-08
1.5881899581e-05
-5.76722014934e-08
1.58812557973e-05
-7.39210750715e-08
1.58795227262e-05
-8.90666613929e-08
1.5876356461e-05
-1.03341850509e-07
1.5871466721e-05
-1.16881397168e-07
1.58646104087e-05
-1.29735878328e-07
1.58555934698e-05
-1.41898501112e-07
1.58442737816e-05
-1.53323557517e-07
1.5830563525e-05
-1.63940701181e-07
1.58144312593e-05
-1.73668530294e-07
1.57959031193e-05
-1.8242653416e-07
1.57750619335e-05
-1.90144559928e-07
1.57520438092e-05
-1.96769541982e-07
1.5727032068e-05
-2.02268658785e-07
1.57002515396e-05
-2.06619376185e-07
-2.09691776492e-07
1.56719856938e-05
1.41485215242e-05
-2.04414323395e-08
1.41481424172e-05
-3.96422054255e-08
1.4147259244e-05
-5.67890168792e-08
1.41454643069e-05
-7.21261259512e-08
1.41424183206e-05
-8.60206645064e-08
1.4137874846e-05
-9.87983639781e-08
1.41316434271e-05
-1.10649969383e-07
1.41235784827e-05
-1.21670922416e-07
1.41135812814e-05
-1.3190129205e-07
1.41015992474e-05
-1.41341512785e-07
1.40876237928e-05
-1.49965240126e-07
1.40716886714e-05
-1.57733398495e-07
1.40538679291e-05
-1.64605785804e-07
1.40342726592e-05
-1.70549279689e-07
1.40130462724e-05
-1.75543149947e-07
1.39903587462e-05
-1.79581122495e-07
1.39664020109e-05
-1.82662636566e-07
-1.84694038193e-07
1.39414042823e-05
1.26047237512e-05
-2.01204584524e-08
1.26041544627e-05
-3.90729062587e-08
1.26030199388e-05
-5.56544822302e-08
1.26008527129e-05
-6.99588896539e-08
1.25973573303e-05
-8.25252711015e-08
1.25923670158e-05
-9.38080398418e-08
1.25857610695e-05
-1.0404401264e-07
1.25774589692e-05
-1.13368812967e-07
1.25674245988e-05
-1.2186691274e-07
1.25556607799e-05
-1.29577685167e-07
1.25422039498e-05
-1.36508402128e-07
1.252712118e-05
-1.42650619975e-07
1.2510507374e-05
-1.4799197233e-07
1.24924817056e-05
-1.52523602907e-07
1.24731834332e-05
-1.56244870435e-07
1.24527673931e-05
-1.59165074736e-07
1.24314011362e-05
-1.6129637259e-07
-1.62569082897e-07
1.24092761865e-05
1.12294127889e-05
-1.97183408432e-08
1.12289666241e-05
-3.86267315494e-08
1.12280015627e-05
-5.46894111441e-08
1.12259044039e-05
-6.78617210318e-08
1.12224414857e-05
-7.90623432433e-08
1.12175210789e-05
-8.88876236258e-08
1.12110681807e-05
-9.75911057545e-08
1.12030463871e-05
-1.05347011068e-07
1.11934627935e-05
-1.12283310298e-07
1.11823555981e-05
-1.18470482353e-07
1.11697870768e-05
-1.23939871601e-07
1.11558407721e-05
-1.2870430908e-07
1.11406187522e-05
-1.32769942721e-07
1.11242383003e-05
-1.36143145713e-07
1.11068284614e-05
-1.38835021206e-07
1.10885267331e-05
-1.40863342074e-07
1.10694777634e-05
-1.42247393025e-07
-1.42933746833e-07
1.10498424303e-05
1.00040868294e-05
-1.918009387e-08
1.00040012182e-05
-3.85411113729e-08
1.00034726978e-05
-5.41608817863e-08
1.00016745113e-05
-6.60635258391e-08
9.99849715287e-06
-7.58849756752e-08
9.9939181059e-06
-8.43085683631e-08
9.98788978791e-06
-9.15627797598e-08
9.98041007202e-06
-9.78672874355e-08
9.97151772052e-06
-1.03390951507e-07
9.96127277619e-06
-1.082255303e-07
9.94975093985e-06
-1.12418028365e-07
9.93704217347e-06
-1.15995534563e-07
9.92324837815e-06
-1.18976141001e-07
9.90848067358e-06
-1.21375432384e-07
9.89285711852e-06
-1.23211460417e-07
9.87650148949e-06
-1.24507703863e-07
9.85954588516e-06
-1.25291784473e-07
-1.25528254453e-07
9.84214040169e-06
8.91225550954e-06
-1.83299772204e-08
8.91272836257e-06
-3.90139557612e-08
8.91274282421e-06
-5.41753350541e-08
8.91130628902e-06
-6.46269820005e-08
8.90851665087e-06
-7.30953290862e-08
8.90438438369e-06
-8.01762934115e-08
8.89887595154e-06
-8.60543407064e-08
8.89202417761e-06
-9.10155065748e-08
8.88389441093e-06
-9.52611779542e-08
8.87456052036e-06
-9.88916329778e-08
8.86410398997e-06
-1.0196149116e-07
8.85261463167e-06
-1.04506169866e-07
8.84018884437e-06
-1.06550346713e-07
8.82692718267e-06
-1.08113764087e-07
8.81293200173e-06
-1.09216271494e-07
8.79830585651e-06
-1.09881552488e-07
8.78315394602e-06
-1.10139865923e-07
-1.09965156608e-07
8.76759085264e-06
7.93929360862e-06
-1.69507163663e-08
7.9406085759e-06
-4.03289147088e-08
7.94107562718e-06
-5.46423781386e-08
7.93992417044e-06
-6.34755179753e-08
7.9375401077e-06
-7.07112577547e-08
7.93388573466e-06
-7.65219127232e-08
7.92892133909e-06
-8.10899380777e-08
7.92270632948e-06
-8.48004902439e-08
7.91532237471e-06
-8.78772170317e-08
7.90685064625e-06
-9.04198979407e-08
7.89737534177e-06
-9.24861804979e-08
7.88698501661e-06
-9.41158383854e-08
7.87577109423e-06
-9.53364178552e-08
7.86382588306e-06
-9.61685461102e-08
7.85124088089e-06
-9.66312628146e-08
7.83810687176e-06
-9.67475362418e-08
7.82452408144e-06
-9.6557068777e-08
-9.60718074656e-08
7.81063073976e-06
7.07140283329e-06
-1.40193543355e-08
7.07421891554e-06
-4.31449885119e-08
7.07491447546e-06
-5.53379298879e-08
7.07384769435e-06
-6.24087289871e-08
7.07173177163e-06
-6.85953269966e-08
7.06843227506e-06
-7.32224086714e-08
7.0639184442e-06
-7.65761006026e-08
7.05826468682e-06
-7.91467261819e-08
7.05154759502e-06
-8.11601184293e-08
7.04384019871e-06
-8.27124951368e-08
7.03522014599e-06
-8.38661215704e-08
7.02576984164e-06
-8.46655279419e-08
7.0155739544e-06
-8.51405241761e-08
7.0047164208e-06
-8.53110060991e-08
6.9932760813e-06
-8.51909164937e-08
6.98132004877e-06
-8.47914969424e-08
6.96889662948e-06
-8.41336423306e-08
-8.32036377527e-08
6.95602846732e-06
6.29576365313e-06
-7.26848443181e-09
6.30142396227e-06
-4.88052891945e-08
6.30260741904e-06
-5.65213793248e-08
6.30191854237e-06
-6.17198460134e-08
6.30004180295e-06
-6.67185794872e-08
6.29678177689e-06
-6.99623751406e-08
6.29225785678e-06
-7.20521738692e-08
6.28663005925e-06
-7.3518920615e-08
6.28000331828e-06
-7.45333721529e-08
6.27245962905e-06
-7.51687993281e-08
6.26407755394e-06
-7.54840403538e-08
6.25493596277e-06
-7.55239309144e-08
6.24511412335e-06
-7.53186770506e-08
6.23469041478e-06
-7.48872921761e-08
6.22373899548e-06
-7.42394913067e-08
6.21232368643e-06
-7.33761812596e-08
6.20049712472e-06
-7.23070736104e-08
-7.10231493269e-08
6.18831664305e-06
5.59994513065e-06
7.68801535679e-09
5.6072444798e-06
-5.61046268396e-08
5.60798385835e-06
-5.72607473933e-08
5.60807168842e-06
-6.180766835e-08
5.60677729324e-06
-6.54241752617e-08
5.60360830867e-06
-6.67933823462e-08
5.5987708598e-06
-6.72147171278e-08
5.59249986134e-06
-6.72479132448e-08
5.58496841907e-06
-6.70019224951e-08
5.57632068656e-06
-6.65210597511e-08
5.56668514458e-06
-6.58484920168e-08
5.55617915524e-06
-6.5017934169e-08
5.5449124071e-06
-6.40519216283e-08
5.53298865554e-06
-6.29635339624e-08
5.52050405179e-06
-6.17548816621e-08
5.50753558409e-06
-6.04077069822e-08
5.49409891609e-06
-5.88703991188e-08
-5.68874939954e-08
5.47996326822e-06
5.0078884131e-06
2.10800642166e-09
5.00214201439e-06
-5.0358213323e-08
4.99069117764e-06
-4.58098976726e-08
4.98011817695e-06
-5.12346578214e-08
4.96851026379e-06
-5.38162514384e-08
4.95550921005e-06
-5.37923188063e-08
4.94110999353e-06
-5.28154907357e-08
4.92534649509e-06
-5.14844040931e-08
4.90831491901e-06
-4.99703376015e-08
4.89015311349e-06
-4.83592460718e-08
4.87101388284e-06
-4.6709253632e-08
4.85105236315e-06
-4.50564058908e-08
4.83042120093e-06
-4.34207503616e-08
4.80926889257e-06
-4.18112181867e-08
4.78774058681e-06
-4.02265689919e-08
4.76598120217e-06
-3.86483152176e-08
4.74412287933e-06
-3.70120688857e-08
-3.49552078455e-08
4.7221906005e-06
4.45865806567e-06
4.4082998536e-06
4.36248995689e-06
4.31125530022e-06
4.25743904992e-06
4.2036467323e-06
4.15083124303e-06
4.0993468402e-06
4.04937650387e-06
4.00101725905e-06
3.95430800689e-06
3.90925160275e-06
3.86583085394e-06
3.82401963721e-06
3.78379306984e-06
3.74514475638e-06
3.70813268945e-06
3.67317748348e-06
2.32741778084e-06
-2.32741855189e-06
2.88408453541e-06
-5.56667772219e-07
3.00047513602e-06
-1.16391379312e-07
3.03609280414e-06
-3.56183991904e-08
3.08561430009e-06
-4.9522217462e-08
3.13379111784e-06
-4.8177575927e-08
3.17503650526e-06
-4.12461407048e-08
3.20991006616e-06
-3.48743474918e-08
3.23965407016e-06
-2.97447781632e-08
3.26492192942e-06
-2.52686618051e-08
3.28607553917e-06
-2.1154393975e-08
3.30343690154e-06
-1.73621718928e-08
3.31731681761e-06
-1.38807039245e-08
3.32798997319e-06
-1.0673968189e-08
3.33568857809e-06
-7.69939562371e-09
3.34060700475e-06
-4.91924519431e-09
3.34291832385e-06
-2.31211971696e-09
3.34280658473e-06
1.10902601231e-10
3.34037101535e-06
2.43474230215e-09
3.33555463891e-06
4.81550012518e-09
3.32818667447e-06
7.36708385783e-09
3.31794872425e-06
1.02370031336e-08
3.30429320665e-06
1.36545517812e-08
3.28628932933e-06
1.80028296067e-08
3.26230502062e-06
2.39831932599e-08
3.22930135291e-06
3.30023216629e-08
3.1808117117e-06
4.8488164912e-08
3.10051218516e-06
8.02979724695e-08
1.7044227735e-07
2.93006860457e-06
2.52722389568e-06
-2.52722447904e-06
3.37200613795e-06
-8.44782779072e-07
4.27966527837e-06
-9.07659656813e-07
2.98823828741e-06
-1.03599207235e-06
3.08278768031e-06
-6.51217776884e-07
3.28376615366e-06
-3.17370441569e-07
3.41573884836e-06
-1.67591690984e-07
3.49957073971e-06
-1.333546927e-07
3.56427218753e-06
-1.12879635626e-07
3.61567246956e-06
-9.26470275418e-08
3.65675088483e-06
-7.59533964847e-08
3.68988182486e-06
-6.28763405891e-08
3.71670474961e-06
-5.20922359607e-08
3.73834074752e-06
-4.27910260411e-08
3.75560870987e-06
-3.46307941011e-08
3.76913079862e-06
-2.74034347564e-08
3.7793834127e-06
-2.09272502573e-08
3.7867299037e-06
-1.5046536395e-08
3.79144246337e-06
-9.63248336532e-09
3.79371105295e-06
-4.5813722195e-09
3.79364280097e-06
1.78456355544e-10
3.79128428561e-06
4.79256924483e-09
3.78661386543e-06
9.48518595294e-09
3.77949571042e-06
1.44845043968e-08
3.76964114994e-06
2.0090769329e-08
3.75653787251e-06
2.67570251762e-08
3.73931628884e-06
3.52235388327e-08
3.71649157774e-06
4.68069789012e-08
3.68544446229e-06
6.40483461107e-08
3.64146016782e-06
9.24712336566e-08
3.5761251648e-06
1.45631745978e-07
2.55969888329e-07
3.49059646422e-06
2.56708771711e-06
-2.56708802106e-06
3.22985700617e-06
-6.62769606253e-07
3.78094132601e-06
-5.51084674807e-07
4.69967119718e-06
-9.18730248377e-07
3.38286843641e-06
-1.21042208632e-06
3.53176016218e-06
-9.93674916472e-07
3.5635655958e-06
-9.39465541118e-07
3.42629789839e-06
-8.98724798876e-07
3.45629708082e-06
-6.8121738365e-07
3.57054633664e-06
-4.31620109706e-07
3.67804405141e-06
-2.75089810047e-07
3.75226676852e-06
-2.07577821436e-07
3.80750472174e-06
-1.68118000774e-07
3.85105273914e-06
-1.36195465906e-07
3.88570358826e-06
-1.10604666365e-07
3.91328398611e-06
-9.04571652014e-08
3.93520474081e-06
-7.40134161951e-08
3.95250292824e-06
-6.00896422211e-08
3.96593661314e-06
-4.80649064963e-08
3.9760740057e-06
-3.75412561389e-08
3.98334883894e-06
-2.82025124557e-08
3.98809174475e-06
-1.97898720281e-08
3.99054993528e-06
-1.20911072398e-08
3.99090515999e-06
-4.93703281311e-09
3.98925085096e-06
1.83232010695e-09
3.98560550583e-06
8.43746290065e-09
3.97993765776e-06
1.51525641765e-08
3.97212597117e-06
2.22957084958e-08
3.96192360176e-06
3.02926269493e-08
3.9489066496e-06
3.97734482942e-08
3.93238824028e-06
5.17413793551e-08
3.91128306948e-06
6.79115370002e-08
3.8839255518e-06
9.1405116423e-08
3.84807802959e-06
1.28317908452e-07
3.80230797186e-06
1.91400949215e-07
3.02725170998e-07
3.75555196512e-06
2.65820143222e-06
-2.65820179047e-06
3.35879405112e-06
-7.00592908843e-07
3.94174352631e-06
-5.82949714312e-07
4.89151875937e-06
-9.49775457014e-07
3.49705479357e-06
-1.172624262e-06
3.71671047061e-06
-8.824255377e-07
3.96102126835e-06
-7.95395747391e-07
3.97964759073e-06
-9.37356888119e-07
3.82767755467e-06
-1.05845237312e-06
3.82823797053e-06
-9.94235662966e-07
3.81346983502e-06
-9.24697671176e-07
3.7510429065e-06
-8.36298239254e-07
3.74956768038e-06
-6.79742508588e-07
3.80807338477e-06
-4.90126177637e-07
3.8801373832e-06
-3.47154159747e-07
3.93761834815e-06
-2.65059163702e-07
3.98163397143e-06
-2.12133993483e-07
4.01650344675e-06
-1.71065338631e-07
4.04421213816e-06
-1.38313745086e-07
4.06599578215e-06
-1.12241222941e-07
4.08292450761e-06
-9.0942542518e-08
4.09585894694e-06
-7.3024507106e-08
4.10544569641e-06
-5.76520666593e-08
4.11217097833e-06
-4.42669723743e-08
4.1164071103e-06
-3.24390631785e-08
4.11843950379e-06
-2.1822708245e-08
4.11848392706e-06
-1.2135958803e-08
4.11670294738e-06
-3.15650798328e-09
4.11317705617e-06
5.35776782976e-09
4.1079159453e-06
1.36980989344e-08
4.10088889476e-06
2.21791453115e-08
4.09199310335e-06
3.11909916419e-08
4.08102752255e-06
4.12576979989e-08
4.06766094626e-06
5.313947029e-08
4.0513904058e-06
6.80113593589e-08
4.03150554635e-06
8.7795766917e-08
4.00712998279e-06
1.15779965177e-07
3.97766446827e-06
1.57782594642e-07
3.9446291723e-06
2.24435429861e-07
3.30141231974e-07
3.91721238715e-06
2.71549880417e-06
-2.71549902661e-06
3.44454628804e-06
-7.29047721043e-07
4.05417585222e-06
-6.09629817709e-07
5.04082289781e-06
-9.86647334721e-07
3.60854968166e-06
-1.22592879996e-06
3.83976176252e-06
-9.3180521717e-07
4.09340075076e-06
-8.36588894116e-07
4.10797824521e-06
-9.64353135543e-07
3.9826531932e-06
-1.04729940082e-06
4.05613925961e-06
-9.55911813731e-07
4.16913678898e-06
-9.08393502757e-07
4.18050715247e-06
-9.48727467261e-07
4.10775102208e-06
-9.85696525072e-07
4.06630834881e-06
-9.52793246035e-07
4.02884845556e-06
-8.8723810406e-07
3.98710655377e-06
-7.9455659758e-07
3.97495633229e-06
-6.6759255472e-07
4.00208876513e-06
-5.17258860879e-07
4.04626632059e-06
-3.91331974623e-07
4.08684869967e-06
-3.05641794589e-07
4.11986377674e-06
-2.45149336485e-07
4.14662509093e-06
-1.97826911587e-07
4.16805925134e-06
-1.59748177776e-07
4.18479461077e-06
-1.28976846116e-07
4.19749923623e-06
-1.03647443899e-07
4.20679473408e-06
-8.23202714224e-08
4.21318516502e-06
-6.40427751527e-08
4.21706578796e-06
-4.81478633143e-08
4.21874810973e-06
-3.41216636749e-08
4.218477425e-06
-2.15522938179e-08
4.21644856686e-06
-1.01073825842e-08
4.21279799077e-06
4.93792042157e-10
4.20759271921e-06
1.05627495206e-08
4.20085370998e-06
2.04368198492e-08
4.19256118049e-06
3.04713683085e-08
4.1826370852e-06
4.1114776017e-08
4.17093018749e-06
5.29642624321e-08
4.15720177769e-06
6.68675386772e-08
4.14111893404e-06
8.40938378879e-08
4.12228599735e-06
1.06628305514e-07
4.10040170889e-06
1.37663766457e-07
4.0758158102e-06
1.82367919377e-07
4.05112237327e-06
2.49128298748e-07
3.47040594063e-07
4.03422253335e-06
2.76058660327e-06
-2.76058695158e-06
3.50907481257e-06
-7.48488472963e-07
4.13419739038e-06
-6.2512276607e-07
5.14196860128e-06
-1.00777141339e-06
3.69089222696e-06
-1.26442280467e-06
3.93534502488e-06
-9.73500717699e-07
4.20549848892e-06
-8.79783499635e-07
4.23204448139e-06
-1.01319353293e-06
4.10996910798e-06
-1.10385364305e-06
4.19033553605e-06
-1.01217183182e-06
4.31107167916e-06
-9.57325197202e-07
4.33289455394e-06
-9.86176155639e-07
4.2926459991e-06
-1.00705101258e-06
4.30868009475e-06
-9.71946095538e-07
4.34403684764e-06
-9.43750436042e-07
4.33892736884e-06
-9.43618231854e-07
4.29376994501e-06
-9.40539322544e-07
4.24880044735e-06
-9.07823982887e-07
4.20641641739e-06
-8.4485423752e-07
4.17044486988e-06
-7.58585304433e-07
4.15315422817e-06
-6.50302174369e-07
4.16233682548e-06
-5.26441704592e-07
4.18696513126e-06
-4.15960544733e-07
4.21330069241e-06
-3.31977611336e-07
4.23640021563e-06
-2.68249138053e-07
4.25578045676e-06
-2.17207422675e-07
4.27151387004e-06
-1.75481884283e-07
4.28373532888e-06
-1.41198588135e-07
4.29275151056e-06
-1.12663931426e-07
4.29893938762e-06
-8.85084425644e-08
4.30264738134e-06
-6.77510850419e-08
4.30417044885e-06
-4.96712340751e-08
4.30375371914e-06
-3.37052594567e-08
4.30159960348e-06
-1.93984906157e-08
4.29787910152e-06
-6.38721688196e-09
4.29270013078e-06
5.67243847383e-09
4.28611943137e-06
1.71430977317e-08
4.27817290366e-06
2.83830053075e-08
4.26885457533e-06
3.97893219037e-08
4.25811410879e-06
5.1854872689e-08
4.24585110019e-06
6.5226863367e-08
4.23191496618e-06
8.08032687743e-08
4.21612291984e-06
9.98854403065e-08
4.19833049376e-06
1.24420271682e-07
4.17863374294e-06
1.57359961542e-07
4.15789601334e-06
2.03105020978e-07
4.13896137879e-06
2.68062306078e-07
3.57755722548e-07
4.12824569994e-06
2.79147463504e-06
-2.79147496352e-06
3.45247947473e-06
-6.61005135109e-07
3.78436645718e-06
-3.31887288679e-07
4.283686313e-06
-4.99320140572e-07
5.26396135559e-06
-9.80275352206e-07
3.78072303035e-06
-1.27734885902e-06
4.02261160434e-06
-9.90377268155e-07
4.29941127173e-06
-9.01922622393e-07
4.33643229568e-06
-1.04479257261e-06
4.22082782164e-06
-1.14881849698e-06
4.31179048462e-06
-1.06446355833e-06
4.44412223255e-06
-1.01211542738e-06
4.47495822426e-06
-1.04402971624e-06
4.43940263447e-06
-1.06829823383e-06
4.46063492641e-06
-1.03340428035e-06
4.50404135597e-06
-1.0007317611e-06
4.51334178873e-06
-9.95476730036e-07
4.49632225969e-06
-9.90031628261e-07
4.49152955114e-06
-9.67153540017e-07
4.49107142325e-06
-9.43292481945e-07
4.47324882593e-06
-9.25795779941e-07
4.43608694749e-06
-9.03377661944e-07
4.39364244724e-06
-8.6537968007e-07
4.35285449642e-06
-8.04066545938e-07
4.31916715853e-06
-7.24898160585e-07
4.29888610335e-06
-6.30021303428e-07
4.29717293769e-06
-5.24728727271e-07
4.3083264323e-06
-4.27114214876e-07
4.32343469967e-06
-3.47086063333e-07
4.33805716566e-06
-2.82871778632e-07
4.35090267648e-06
-2.30053118803e-07
4.36150407995e-06
-1.8608346346e-07
4.36965087615e-06
-1.49345570676e-07
4.37536931305e-06
-1.18382545162e-07
4.37882305345e-06
-9.19623699886e-08
4.38021297817e-06
-6.91411876653e-08
4.37973421305e-06