/*--------------------------------*- C++ -*----------------------------------*\
| =========                 |                                                 |
| \\      /  F ield         | OpenFOAM: The Open Source CFD Toolbox           |
|  \\    /   O peration     | Version:  2.3.1                                 |
|   \\  /    A nd           | Web:      www.OpenFOAM.org                      |
|    \\/     M anipulation  |                                                 |
\*---------------------------------------------------------------------------*/
FoamFile
{
    version     2.0;
    format      ascii;
    class       volVectorField;
    location    "300";
    object      U;
}
// * * * * * * * * * * * * * * * * * * * * * * * * * * * * * * * * * * * * * //

dimensions      [0 1 -1 0 0 0 0];

internalField   nonuniform List<vector> 
10011
(
(9.84069061991 -1.23875975373 -1.27388094886e-21)
(9.74371117359 -0.73208111928 -2.31121005748e-21)
(9.54931248354 -0.468329909036 -2.77471718275e-21)
(9.346102871 -0.308921550938 -7.19277265357e-21)
(9.16129105198 -0.208089773957 1.46924895525e-21)
(8.99547784191 -0.142442733546 6.21577327786e-21)
(8.84748454595 -0.0986301744128 -3.2000770853e-20)
(8.7172383654 -0.0689315011093 0)
(8.60491599273 -0.0487080786031 0)
(8.51087070002 -0.0350796710275 0)
(8.43596965674 -0.0262558023043 5.93271845414e-20)
(8.38199045295 -0.021191828469 6.27871155014e-20)
(8.35219334508 -0.0194422431127 -6.33561757912e-20)
(8.35233607547 -0.0215642861624 -2.69837968694e-19)
(8.39677731061 -0.0298460414237 0)
(8.51597234355 -0.0512923190588 0)
(8.77216925508 -0.101929500396 -1.26556409683e-18)
(9.58380737046 0.228458577149 -2.58495570892e-18)
(10.0343803522 0.446593900689 -9.62274432188e-22)
(10.0275385338 0.425129646077 3.06791944132e-21)
(10.0007359994 0.337406019631 1.08168828423e-21)
(9.96608704634 0.266992734504 4.60405376769e-21)
(9.93397606114 0.212444316955 -1.42491008757e-20)
(9.90407587901 0.170184678032 6.28437043575e-23)
(9.87623523466 0.137561443719 1.5260545626e-20)
(9.85185825397 0.111974461354 0)
(9.83276771463 0.0912178223267 0)
(9.82089978924 0.0735342360394 8.88208227444e-20)
(9.81852308285 0.0574349503483 -1.37643611907e-19)
(9.82859629919 0.0414561322883 0)
(9.85525744704 0.0237290568059 0)
(9.90595780555 0.00105596708223 -2.0454207396e-19)
(9.98958320273 -0.0324291824268 0)
(10.1201194439 -0.0895875547026 -4.67032613887e-19)
(10.3116391373 -0.209974475306 1.39979834101e-18)
(10.5683919949 -0.531438674016 2.01436613906e-18)
(9.99378658367 0.0252381302052 1.24643297879e-21)
(10.0070343626 -0.0121886263047 -3.03946378342e-21)
(10.0297082148 -0.0330128470855 1.7091828586e-21)
(10.0466738236 -0.0301805779349 5.53074035449e-21)
(10.0630273109 -0.0215217181524 7.11754729418e-23)
(10.0800247854 -0.013422985686 3.25190212505e-20)
(10.0979710528 -0.00723685541349 3.38158618446e-20)
(10.1180438383 -0.00349180996288 5.26801782813e-20)
(10.1417133363 -0.00253450085874 -1.79023389202e-20)
(10.1705161545 -0.0046808772817 -3.79523319173e-20)
(10.2062474619 -0.0104246252101 1.15582469456e-19)
(10.2512106927 -0.020716507696 1.59918748378e-19)
(10.308740464 -0.0374637271206 1.68799377992e-19)
(10.382321353 -0.0641658525814 4.85667134964e-23)
(10.4767670715 -0.107549904212 5.39038453788e-19)
(10.5980941176 -0.181689733508 -3.5890838938e-19)
(10.7443940211 -0.316266123325 -7.54057063979e-19)
(10.8879565592 -0.552889259689 1.53029343028e-18)
(10.0009144316 0.0175069139563 0)
(10.0171674201 0.0386175698398 2.29765760679e-21)
(10.0425632328 0.0481656409178 5.20485134519e-21)
(10.0627062434 0.0546248869945 -5.65762655975e-21)
(10.0825982801 0.056317378313 2.73712217871e-20)
(10.1045266356 0.0536758332306 -2.89092235589e-20)
(10.128768882 0.0481520186522 -2.0189845407e-20)
(10.1560101102 0.0404716887574 -3.52681187474e-20)
(10.1872256326 0.0307012358511 2.90617792405e-20)
(10.2234772599 0.0184835797017 1.16515309911e-22)
(10.2660225753 0.00301445902676 -9.37727671389e-20)
(10.3164465695 -0.017151059801 -6.52987070926e-20)
(10.3765681182 -0.0443596110653 0)
(10.4487107162 -0.0826321914883 -1.36343837164e-19)
(10.5350229694 -0.139137974862 -2.91812525038e-19)
(10.6353407832 -0.226529852924 -1.51087850448e-19)
(10.7397898591 -0.36581654294 6.28901863249e-19)
(10.8131642437 -0.579301014854 -1.29179754756e-18)
(10.0032834755 0.0157005445204 0)
(10.0192733374 0.0344044433286 4.86303520445e-22)
(10.0419456099 0.0366950077938 -5.19322896296e-22)
(10.0617903149 0.0348827511523 6.83706192917e-21)
(10.0822827854 0.0314237764099 -7.33442444152e-21)
(10.1052902618 0.0262029864328 -2.06502817107e-20)
(10.1309169269 0.0194530611759 2.17439657759e-20)
(10.1595722206 0.0110942607852 -4.55823389331e-20)
(10.1919875819 0.000652783185369 -2.41984573573e-20)
(10.2289822277 -0.012644696227 4.9670637153e-20)
(10.2714785888 -0.0298999275505 7.78041566813e-20)
(10.3205420853 -0.0527469560549 -1.07060614934e-19)
(10.3773131699 -0.0837761159025 0)
(10.4427218621 -0.12707285609 2.24185249253e-21)
(10.5166086137 -0.189089149677 0)
(10.5954907465 -0.279528408988 2.4690647028e-19)
(10.6677785319 -0.410937830689 2.55649447298e-19)
(10.7050598824 -0.590003526273 -2.48788364492e-19)
(10.0035667574 0.0150499875046 0)
(10.0180538496 0.0288219285648 -4.44081888777e-21)
(10.0387039382 0.0303894970688 -7.52112787753e-21)
(10.0585089192 0.0284887890064 -6.95166792392e-21)
(10.0792179317 0.0251788094746 -4.20659817599e-21)
(10.102263449 0.0198852057467 2.19103274251e-20)
(10.1278129992 0.0124643799697 -4.60113069534e-20)
(10.1562005425 0.00275181087926 4.79466438384e-20)
(10.1880041958 -0.00973709679178 -6.02043007789e-20)
(10.2238608494 -0.0257579167796 4.15418751695e-20)
(10.2644105419 -0.0464464353915 2.2280710394e-20)
(10.3102671895 -0.0734915499149 1.1541101424e-21)
(10.3618551272 -0.109390330098 9.30476959309e-20)
(10.4189906059 -0.15780355906 -4.46369226741e-20)
(10.4799910994 -0.223904277201 1.94808529435e-19)
(10.5399449121 -0.314289813693 -9.68989577835e-20)
(10.5882214341 -0.435299678849 2.06320166649e-19)
(10.6043460653 -0.58589048771 -1.02631850415e-19)
(10.003176205 0.0117730513868 0)
(10.0159341949 0.0215984198811 3.28935714098e-21)
(10.0347888785 0.0228951377259 4.27308434658e-21)
(10.054166359 0.0205246766341 -2.66626113448e-21)
(10.0746133056 0.0161783941961 9.19763084475e-21)
(10.0971981386 0.00953351063854 -3.85619838474e-21)
(10.1221395197 0.000439410631046 3.98195389974e-21)
(10.1496881128 -0.0112932395636 0)
(10.1802732066 -0.0261305347555 3.40491550522e-20)
(10.2143175716 -0.0448726084299 0)
(10.2521712314 -0.0686726685791 7.26623337776e-20)
(10.2940226155 -0.0991551453216 -3.81265133511e-20)
(10.339685326 -0.138575730991 3.75121760195e-20)
(10.3881804775 -0.189954141791 1.61316368527e-19)
(10.437025516 -0.257043115916 -2.49858450885e-19)
(10.4811494286 -0.343764877413 2.54392458386e-19)
(10.5119950565 -0.452389601026 -1.75127987732e-19)
(10.5157434862 -0.578488498919 -1.70226676733e-19)
(10.0028587915 0.00892301466823 8.6314772195e-22)
(10.0141849083 0.0161605434168 0)
(10.0314187129 0.0168270075562 0)
(10.049990356 0.0137182315097 7.73188411478e-21)
(10.0698441836 0.00831424074305 -1.60286977465e-20)
(10.0917287989 0.000488838970718 -4.1852212932e-21)
(10.1158280309 -0.00994436163803 2.15261353272e-20)
(10.1423094403 -0.0232265103703 -2.68112838402e-20)
(10.1714411616 -0.0398726854151 -1.85187769353e-20)
(10.2034627822 -0.0606811604562 -9.47558657792e-21)
(10.2384834809 -0.0867614355362 -3.98739223694e-20)
(10.2763680382 -0.119602052968 2.06667318883e-20)
(10.316523425 -0.161135584988 -1.48334837114e-19)
(10.3575419978 -0.213724900314 4.29926655356e-20)
(10.3966944207 -0.279940958108 0)
(10.4293144312 -0.361884365878 4.61202485917e-20)
(10.4487141932 -0.459661983905 -4.60827535895e-20)
(10.4452568394 -0.568019617064 1.40710695931e-19)
(10.0026086269 0.00651006647785 -8.17974390266e-22)
(10.0127359725 0.011558030315 0)
(10.0284868787 0.0112655491081 0)
(10.0461151258 0.00733587685129 -9.06173935319e-21)
(10.0652098472 0.00095596015906 9.3082481813e-21)
(10.0862488403 -0.00794002220197 0)
(10.1093657704 -0.0195617934656 3.97156215121e-21)
(10.1346351839 -0.0342046031035 -3.97122251308e-21)
(10.1621903893 -0.0523861601599 0)
(10.1921085456 -0.074874860698 0)
(10.224300013 -0.102698890295 -7.06384860692e-20)
(10.2583866199 -0.137170742418 0)
(10.2935097812 -0.179884053795 0)
(10.3280523036 -0.232613173498 -3.72546246742e-20)
(10.3593121638 -0.297015378672 -1.16070391732e-19)
(10.3832160807 -0.373995757992 0)
(10.3946175729 -0.462544132287 0)
(10.3867456017 -0.557529227505 3.9446757017e-20)
(10.0023549657 0.00405377823679 0)
(10.0112930873 0.00679234241321 0)
(10.0254607084 0.0052411217323 -4.29176857973e-21)
(10.0418780011 0.000302732953396 -2.63234234793e-21)
(10.0598989973 -0.00717830183166 0)
(10.0797574482 -0.017247432308 3.6298540232e-21)
(10.101507549 -0.0301457052909 7.49093114462e-21)
(10.1251312839 -0.0461941157205 1.15381171085e-20)
(10.1506212624 -0.0658972699001 0)
(10.1778895062 -0.0899638938044 0)
(10.2066589531 -0.119297385739 6.53418458242e-20)
(10.2363490563 -0.154981107987 -3.31706941612e-20)
(10.2659241067 -0.198222555967 0)
(10.2937090847 -0.250203358796 6.99211042006e-20)
(10.3172308267 -0.311774840015 3.63397024053e-20)
(10.3331732316 -0.382947141761 3.57599600878e-20)
(10.3378308675 -0.462109589526 -7.15989174009e-20)
(10.3267104022 -0.544641458397 3.42630295766e-20)
(10.0020890422 0.00153513922375 1.92584285143e-22)
(10.0098718894 0.00187603637478 -2.01067050732e-22)
(10.0224071682 -0.00117226085457 4.09558486138e-21)
(10.0373736004 -0.00730856088026 2.50260605357e-21)
(10.05400324 -0.0160167788778 0)
(10.0723110441 -0.0273587251132 -6.89477611334e-21)
(10.092263408 -0.0415857770747 0)
(10.113747423 -0.0590296366213 0)
(10.1366207541 -0.0801592434151 7.13301545327e-21)
(10.1606430881 -0.105590643215 7.3099765185e-21)
(10.1853812782 -0.136061412656 -4.49431817138e-20)
(10.2101161247 -0.172386215038 3.05768636219e-20)
(10.2337419724 -0.215370274245 1.55040508722e-20)
(10.2546745392 -0.265649159943 1.53811157668e-20)
(10.2708215456 -0.323431717184 2.57019667225e-22)
(10.279677525 -0.388149468189 3.15570087106e-20)
(10.2787750614 -0.458010320848 6.30096257964e-20)
(10.265269916 -0.529127718266 -9.42547334211e-20)
(10.0018146244 -0.00101629833462 0)
(10.0084829706 -0.00311000535869 0)
(10.0193631303 -0.00785330872939 1.52649468387e-21)
(10.0326685027 -0.0153537492198 -3.86722226327e-21)
(10.0475959176 -0.0253868407801 -7.94227933049e-22)
(10.0639856993 -0.0380442479795 1.58028064041e-21)
(10.0817066948 -0.0535788584269 0)
(10.1005541763 -0.0723116509211 6.48853240603e-21)
(10.1202683169 -0.0946509854628 -6.61460352911e-21)
(10.1404859777 -0.12109037817 -6.63717059196e-21)
(10.160668565 -0.15217231994 1.35941641653e-20)
(10.1800387653 -0.188428525075 1.35352344002e-20)
(10.1975313843 -0.230287033223 1.36400002414e-20)
(10.2117743534 -0.277934455972 -1.41464571529e-20)
(10.2211378175 -0.331135072362 1.36390087467e-20)
(10.223877849 -0.38903229985 -1.35627405064e-20)
(10.2184998456 -0.449940039346 -4.22974793097e-20)
(10.2032494532 -0.510766540956 1.34474730779e-20)
(10.0015361012 -0.00354712238446 -3.31532423559e-22)
(10.0071269524 -0.00805951167697 3.4795522876e-22)
(10.0163349283 -0.0146343937283 -3.528724609e-22)
(10.0277923164 -0.0236173968059 2.12151394509e-21)
(10.0407257521 -0.0350099591183 -7.21526611123e-22)
(10.0548476015 -0.0489459866598 1.43406251808e-21)
(10.0699323654 -0.065668262566 0)
(10.0856950972 -0.0854634309052 -5.89242153184e-21)
(10.101787567 -0.108656987261 0)
(10.1177677936 -0.135600666606 5.99452894431e-21)
(10.1330546805 -0.166633260885 -5.98330311934e-21)
(10.1468959367 -0.202021195799 -1.22137543016e-20)
(10.158359577 -0.241879618788 -2.67988240959e-22)
(10.1663595876 -0.286075553609 0)
(10.169734719 -0.334125147079 -2.47755031593e-20)
(10.1673802123 -0.385109692015 1.26035370321e-20)
(10.1584995255 -0.437604629387 1.21236513012e-20)
(10.1419957484 -0.489253423081 -3.55051582386e-20)
(10.0012557098 -0.0059893580541 6.0022192586e-22)
(10.0057953018 -0.0128419083778 -3.12223082352e-22)
(10.0133130977 -0.0212864134151 -2.20649575219e-21)
(10.0227626551 -0.0317807883801 3.58488916633e-24)
(10.0334388906 -0.0444797517525 3.19355274697e-21)
(10.0449764279 -0.0595540813953 -1.28226085634e-21)
(10.0570752089 -0.0772239699588 -2.59857112037e-21)
(10.0693933686 -0.0977217827629 5.15949817632e-21)
(10.0815339077 -0.121276343572 2.60889129633e-21)
(10.0930291728 -0.148095099801 5.279204103e-21)
(10.1033200803 -0.178329689493 -1.57949374496e-20)
(10.1117491456 -0.212029049562 1.05206949883e-20)
(10.1175761032 -0.249085784536 -1.05976804484e-20)
(10.1200200926 -0.28918265443 -1.07233994374e-20)
(10.118333726 -0.331750898721 1.05609447886e-20)
(10.1118956303 -0.375954775606 -1.034890562e-20)
(10.10036533 -0.420681794569 0)
(10.0830046108 -0.464190308509 2.03756112364e-20)
(10.000975457 -0.00825218973988 -2.68244056136e-22)
(10.0044822783 -0.0172742403621 2.80680360998e-22)
(10.0102949009 -0.0274975552465 1.40609667702e-21)
(10.0176137578 -0.0394075228841 1.12286443615e-21)
(10.0258220007 -0.0532404313921 -2.8377864905e-21)
(10.0345243319 -0.0691852136166 5.66116992576e-22)
(10.0433794974 -0.0874287245427 1.14199793791e-21)
(10.0520227403 -0.108138326405 -5.73903046245e-21)
(10.060053684 -0.131445886722 0)
(10.067032235 -0.157431335568 0)
(10.0724753386 -0.1860985519 4.26044972761e-23)
(10.0758647353 -0.217346608682 -6.33501564925e-23)
(10.0766705436 -0.250942457882 9.33783748436e-21)
(10.0743900769 -0.286501471559 -1.3817616849e-20)
(10.0686010823 -0.323482855535 0)
(10.0590131435 -0.361204505536 -4.23119698645e-21)
(10.0455555259 -0.398849756267 1.77928587003e-20)
(10.0276633603 -0.43515848692 -2.61571568158e-20)
(10.0006985541 -0.010219867553 0)
(10.0031940115 -0.0211216320535 2.45737477801e-22)
(10.0073074538 -0.0328826548176 0)
(10.0124340957 -0.0459590229942 -1.48784127179e-21)
(10.0180543108 -0.0606088034973 -4.90658015881e-22)
(10.0237837257 -0.0770161000398 0)
(10.0292792871 -0.0953281369783 -9.93408465401e-22)
(10.034192136 -0.115648716502 4.94596862028e-21)
(10.0381614541 -0.138027479564 -1.45378052891e-23)
(10.0408174162 -0.162449701085 0)
(10.0417867919 -0.188824274751 1.95408662888e-21)
(10.0407052403 -0.216972018971 3.93467950763e-21)
(10.0372377961 -0.246618444641 5.67960303477e-23)
(10.0311052927 -0.2773946976 0)
(10.022115014 -0.308849253248 -3.80136765567e-21)
(10.010181342 -0.34046940547 3.89227743684e-21)
(9.99537457058 -0.371685412713 -3.71384533564e-21)
(9.97719673054 -0.401598959878 7.29129814449e-21)
(10.0004283297 -0.0117467438507 -1.0243946246e-22)
(10.0019512729 -0.0240836384276 -2.69216253062e-22)
(10.0044209387 -0.0369633685277 3.20509548591e-22)
(10.0073914926 -0.0507756657176 0)
(10.0104421198 -0.0657588510169 8.61897033739e-22)
(10.0132297757 -0.0820749501221 -4.28280663341e-22)
(10.0154459115 -0.0998331113425 1.28208193866e-21)
(10.0167926226 -0.119087492787 -2.57345219184e-21)
(10.016981196 -0.139832948349 -3.40285024482e-21)
(10.0157373559 -0.162002253881 1.67650363624e-21)
(10.0128085202 -0.185464118077 -4.10247979944e-23)
(10.0079738395 -0.210023207103 0)
(10.0010569498 -0.235424180822 -3.31792457072e-21)
(9.99193948537 -0.261361063743 1.64319527903e-21)
(9.98057492632 -0.287492071623 6.59402740352e-21)
(9.9669913409 -0.313457227698 -3.20982857656e-21)
(9.95132161895 -0.338875940738 8.00603004585e-21)
(9.93308344894 -0.363115575056 0)
(10.0001991992 -0.0126632019566 1.00750389001e-22)
(10.0009045229 -0.0258088309063 0)
(10.0019881791 -0.0392025966749 -9.92546542912e-25)
(10.0031232882 -0.0531527629702 -2.08664041868e-22)
(10.0039731954 -0.0678620794267 2.07161545899e-22)
(10.0042475393 -0.0834701927629 8.33799556405e-22)
(10.0036918711 -0.100061986954 -8.31163555359e-22)
(10.0020757861 -0.117666100958 0)
(9.99919161407 -0.136255861804 1.67694817729e-21)
(9.99485841747 -0.155752005819 -2.48697279962e-21)
(9.98892730747 -0.176026435096 -1.65401859376e-21)
(9.98128711576 -0.196907800466 0)
(9.97187021017 -0.218189596705 0)
(9.96065729977 -0.239640783623 -4.78493191827e-21)
(9.94768211613 -0.261018302174 4.71143683311e-21)
(9.93302617619 -0.28207896399 1.53307869078e-21)
(9.91684317569 -0.302572764733 -2.16716933909e-23)
(9.89864922922 -0.322049539841 -4.45285042252e-21)
(10.0000460028 -0.0129997115357 -5.54053594089e-23)
(10.0001977848 -0.0263769874609 0)
(10.0003344045 -0.0397479480778 0)
(10.0001974453 -0.0533365251864 4.59794892904e-22)
(9.99949916797 -0.067316411294 -6.90683628901e-22)
(9.9979910854 -0.081820743538 -4.96626089142e-24)
(9.99547139125 -0.09692982312 6.87301669779e-22)
(9.99177214315 -0.112669399253 -4.53595874215e-22)
(9.98675403689 -0.129016237922 4.61134630561e-22)
(9.98030867186 -0.145903658508 8.99740316173e-22)
(9.97236155896 -0.163227306137 0)
(9.96287409507 -0.180852452692 0)
(9.95184484305 -0.198622689787 0)
(9.93930981425 -0.216369424153 -2.58346679603e-21)
(9.92534305887 -0.233921502528 -1.2298363047e-23)
(9.91004858142 -0.251113033837 -4.22722099901e-21)
(9.89358484287 -0.267775278654 5.01727837941e-21)
(9.87546040458 -0.283575162106 1.61637909782e-21)
(9.99995541163 -0.0129915026767 -3.00380608881e-23)
(9.999785943 -0.0262819956522 3.16106233587e-23)
(9.99937767185 -0.0393441121511 -1.8760118644e-22)
(9.99848714912 -0.0523105975897 -2.51618720491e-22)
(9.996828856 -0.0653486704595 0)
(9.99417962594 -0.0786084934543 -5.01527693446e-22)
(9.99038487479 -0.0921805726412 0)
(9.98532891616 -0.106100368589 0)
(9.97892489403 -0.120360142509 -4.91642568232e-22)
(9.97111737834 -0.134914830389 4.90768365072e-22)
(9.96188359137 -0.149687876899 9.68922747243e-22)
(9.95123227553 -0.164579130877 -1.92705761936e-21)
(9.939202341 -0.179473359658 9.57981765888e-22)
(9.92586102813 -0.194248418503 9.5203546533e-22)
(9.91130302115 -0.208782670109 0)
(9.895641499 -0.22296027177 -9.02800618428e-22)
(9.87903489453 -0.236663056052 1.82627102339e-21)
(9.86098333828 -0.249634959706 1.75116222833e-21)
(9.99990139714 -0.0128280606617 -5.48525079992e-26)
(9.99957963964 -0.0259287301363 1.19284036609e-22)
(9.9989489777 -0.0385762165938 1.02553759692e-22)
(9.99771169052 -0.0507968939675 0)
(9.99552783084 -0.0628003973909 0)
(9.99219307962 -0.0747824759646 2.70467041686e-22)
(9.9876023185 -0.0868501573876 0)
(9.98168381828 -0.0990539564187 -2.68614757455e-22)
(9.97439067847 -0.111407528671 0)
(9.96570777958 -0.123890066245 0)
(9.95565044707 -0.136451455599 5.27298074197e-22)
(9.94426029206 -0.149021067424 0)
(9.93160256742 -0.161516226692 0)
(9.91776379844 -0.17384938697 0)
(9.90285065117 -0.185934181323 0)
(9.88698111843 -0.197689351237 0)
(9.87031484452 -0.209031585867 9.86262504586e-22)
(9.85234743592 -0.21976056218 -9.69236260937e-22)
(9.9998500088 -0.0125978234231 -1.76317764828e-23)
(9.99949084158 -0.0255647004642 -3.65795086089e-23)
(9.99892071125 -0.0377973158502 3.67400029183e-23)
(9.99766750683 -0.0492013990025 -3.67990216394e-23)
(9.99526984044 -0.0601232016647 -7.35299371638e-23)
(9.99156236893 -0.0708316181459 -3.68204776576e-22)
(9.98650197198 -0.0814470824324 0)
(9.98005197642 -0.0920375793432 2.93846027974e-22)
(9.97219556721 -0.102640887587 -4.36102208637e-22)
(9.9629507412 -0.113259270644 1.45453744607e-22)
(9.95236323372 -0.123865537088 -8.66186671088e-22)
(9.94049908485 -0.134413618972 5.69984500493e-22)
(9.92744188294 -0.144846826116 -5.67420922492e-22)
(9.91329059969 -0.155104082501 0)
(9.89815852329 -0.165125043824 -2.76831509919e-22)
(9.88216458093 -0.174853229685 0)
(9.86546802404 -0.184229937448 0)
(9.84755374594 -0.193094249276 -1.0492973175e-21)
(9.99974545653 -0.0123170763585 9.39972280238e-24)
(9.99941179109 -0.0253670953342 3.94422881889e-23)
(9.99919110874 -0.0372528979996 0)
(9.99820874364 -0.0478180187588 0)
(9.99581595897 -0.0576859205876 -3.96139420374e-23)
(9.99194868314 -0.0671917676833 2.78147490934e-22)
(9.98664338677 -0.0764589491031 -3.17022179844e-22)
(9.97988763599 -0.0855834511116 7.94014758539e-23)
(9.97168906671 -0.0946308056027 1.7558267317e-24)
(9.96209539581 -0.103621261999 1.57962158421e-22)
(9.95117706073 -0.112543196898 3.14451454158e-22)
(9.9390181011 -0.121367540219 -6.23357689573e-22)
(9.9257150239 -0.130055825665 1.90993240386e-24)
(9.91137523496 -0.13856569435 3.05986677444e-22)
(9.89611633006 -0.146855715677 2.74133280895e-24)
(9.88005816906 -0.15488885335 -2.96733296933e-22)
(9.86336557061 -0.162629755294 2.99369300088e-22)
(9.84552149677 -0.16995702988 5.82384530715e-22)
(9.99949911162 -0.0119376059034 -1.00557794712e-23)
(9.99919073933 -0.0254427616476 -1.04650659821e-23)
(9.99961920334 -0.0368657797928 2.09980039183e-23)
(9.99911061266 -0.0464166478047 5.28521795791e-23)
(9.99683368282 -0.0552017862858 0)
(9.99293165084 -0.063510057198 8.5279315529e-23)
(9.98751421786 -0.071428454373 2.571732251e-22)
(9.98057686063 -0.0790991008429 8.55641149872e-23)
(9.97215566232 -0.0866291491225 1.71658339423e-22)
(9.96233076777 -0.0940625173416 -1.71207567984e-22)
(9.9511937246 -0.101405368424 1.70851334733e-22)
(9.93884123988 -0.108644705552 1.72180126978e-22)
(9.92537781932 -0.115756363965 5.11097508157e-22)
(9.91091470758 -0.122710598895 -5.06711984615e-22)
(9.89556862888 -0.129477366047 1.14481821837e-24)
(9.87945258958 -0.136030594266 3.33968742297e-22)
(9.86272491381 -0.142349096492 -1.64812462174e-22)
(9.84482278386 -0.148334021487 3.22373367148e-22)
(9.99904785464 -0.0114247917175 0)
(9.9987507891 -0.0267071211929 0)
(10.0002097277 -0.037669343817 -8.87892988483e-26)
(10.0002214434 -0.0460820448562 -4.53864030991e-23)
(9.99803464524 -0.053970865455 0)
(9.99416983254 -0.0614350768927 -9.26533922413e-23)
(9.98873965762 -0.0684334201925 -1.40014816079e-22)
(9.98170291317 -0.0750964777665 -4.68652738796e-23)
(9.97312206422 -0.0815284714247 4.7058312438e-23)
(9.96311022275 -0.0877751608187 1.90031254063e-22)
(9.95177796418 -0.0938555429008 -9.57807653344e-23)
(9.93923358752 -0.0997752986516 -7.99427397787e-25)
(9.92558992027 -0.105529665291 -1.90587487834e-22)
(9.91096331302 -0.111106800003 9.45118460766e-23)
(9.89547206658 -0.116492520301 9.45386830501e-23)
(9.87922763044 -0.121676251281 9.41495489114e-23)
(9.86239964984 -0.126662506479 3.74414836183e-22)
(9.84441577716 -0.131406831503 -5.54885540855e-22)
(9.99763000847 -0.00820093510596 1.38983485234e-24)
(9.99706195815 -0.0268555475751 -1.46823653905e-24)
(10.0002513214 -0.037107930737 -1.81070392908e-23)
(10.0007276354 -0.0433323223987 1.85410850744e-23)
(9.99838200476 -0.0489042366734 0)
(9.99441248662 -0.0541516389686 0)
(9.98889433771 -0.0592126418112 7.86662280448e-23)
(9.98171874882 -0.0642593269147 -2.66475672024e-23)
(9.97295790917 -0.0693344770434 -5.39507949376e-23)
(9.96273739067 -0.0744104495719 0)
(9.95117068659 -0.0794497344998 0)
(9.93836891861 -0.084417353692 0)
(9.92444946164 -0.0892797190304 1.6552581268e-22)
(9.90953260738 -0.0940046532488 -5.55493885789e-23)
(9.89373679414 -0.0985626866627 2.20557884675e-22)
(9.87716257648 -0.102930079669 -2.21582055833e-22)
(9.85995466899 -0.107103255456 0)
(9.84134658219 -0.111044257352 -1.07978457552e-22)
(9.99403543099 -0.00545865368219 -7.43376602809e-25)
(9.99223310013 -0.0304249512068 8.10987551927e-25)
(9.99873639434 -0.046724919333 0)
(10.0005633412 -0.0585719604113 -4.27955617207e-23)
(9.99832898094 -0.0671520214894 0)
(9.99401742863 -0.0728981422387 0)
(9.98782539277 -0.076910348072 -1.56111351267e-23)
(9.97976157238 -0.0800331745912 4.77208208792e-23)
(9.97000605156 -0.0826988592056 -6.47100673605e-23)
(9.95873287052 -0.0851279808465 0)
(9.94607180124 -0.0874451343884 0)
(9.93214197252 -0.0897166401382 0)
(9.91706696391 -0.0919690290985 6.66054796805e-23)
(9.90097262324 -0.0942026919401 -6.67513052512e-23)
(9.88398283905 -0.0964004850149 -6.69982919382e-23)
(9.86620326195 -0.0985334112638 6.67011403846e-23)
(9.847802929 -0.100583745042 0)
(9.8279720225 -0.102511358011 0)
(9.98450323942 0.00425306521844 0)
(9.97840625196 0.0215632445581 0)
(9.98576658115 0.0314114230505 0)
(9.9886134162 0.0252052184933 8.77127035127e-24)
(9.98745383533 0.0134756288375 4.57309614356e-24)
(9.98340342536 0.00149194286693 1.43129381914e-23)
(9.97632133985 -0.00969366230802 -9.63390708004e-24)
(9.96640082152 -0.0198820757467 -1.98124180197e-23)
(9.95404769425 -0.0289951472946 -9.9656506508e-24)
(9.93958932546 -0.0370621607381 -6.03009826029e-23)
(9.92326735557 -0.0441812065397 2.0271339099e-23)
(9.90529218524 -0.0504676826049 2.0450806929e-23)
(9.88586346561 -0.0560285895557 -6.10543049927e-23)
(9.86517153613 -0.060953470591 8.16878339906e-23)
(9.8433968964 -0.0653092491216 -8.11233016898e-23)
(9.82069030753 -0.0691320206599 -8.12937629396e-23)
(9.79725091901 -0.0724289639959 -2.02516066727e-25)
(9.77174397001 -0.0750661425493 -4.00299136298e-23)
(10.013025297 -0.318260429944 -5.0386383653e-25)
(10.006756736 -0.328185064077 6.69835093296e-25)
(9.99059036847 -0.274334795089 -2.04571860764e-24)
(9.96758956011 -0.228666626224 1.13908922959e-23)
(9.94444402048 -0.192941476479 -1.47569099249e-24)
(9.92010517016 -0.164651790228 -2.06761018524e-23)
(9.89298415858 -0.142658489747 -3.01750358844e-24)
(9.86286396213 -0.125765776378 0)
(9.83003439167 -0.112799326678 -1.21431324197e-23)
(9.79480449858 -0.102820277388 4.8729861258e-23)
(9.75746711664 -0.095124167358 1.21815438834e-23)
(9.71832554527 -0.0891804688263 -8.55798441095e-23)
(9.67768874903 -0.0845844133241 -1.21605440176e-23)
(9.63585958538 -0.0810228516613 -3.64787140788e-23)
(9.59313279186 -0.0782460144719 7.28960839871e-23)
(9.54978431355 -0.0760350871313 9.67095666948e-23)
(9.50624234217 -0.074159147481 -9.64247883893e-23)
(9.46082208946 -0.0720350376588 8.40056419576e-23)
(9.9534318095 0.91294917559 6.77422072225e-25)
(9.95058757091 0.560529492447 4.05338423045e-25)
(9.85785533465 0.374604389467 3.07898557929e-24)
(9.73764260744 0.257353428614 0)
(9.61498522974 0.178931674939 0)
(9.49362275637 0.124974111369 0)
(9.373892589 0.0867964039442 0)
(9.25666903519 0.0591743179164 0)
(9.1426799176 0.0388713501267 1.51035659494e-23)
(9.03226903744 0.0237699909299 0)
(8.92555603421 0.0124293024177 3.80277630848e-24)
(8.82256479382 0.0038455771094 1.92394995761e-23)
(8.72327095357 -0.00269228124863 7.73204381094e-24)
(8.62762174736 -0.00769469192857 7.6772756671e-24)
(8.53555717642 -0.0115299337303 -3.10089603103e-23)
(8.44701612639 -0.0144585857663 -3.87023231969e-23)
(8.36226405461 -0.0166206297399 0)
(8.2783117036 -0.0179433503853 -1.54092635433e-23)
(3.13246032486 -0.430422546345 -2.60218402046e-16)
(2.90113171985 -0.280855816135 0)
(2.84576569273 0.0585053624342 -3.33489934647e-18)
(3.00157807103 0.0559271621185 0)
(3.11948276287 0.0349210748594 0)
(3.17904963863 0.0183772727741 -2.28526225321e-18)
(3.22331160993 0.00871834925144 1.12404172723e-18)
(3.26570554556 0.00287157569157 0)
(3.30439549518 -0.000799236631741 0)
(3.33803760291 -0.0029543588728 1.76253445508e-19)
(3.36718261558 -0.00403170147071 -1.74885483981e-19)
(3.3925182982 -0.00439448824278 -8.61389692331e-20)
(3.41440672819 -0.00431039582714 8.57265588435e-20)
(3.43307520243 -0.00395662696676 0)
(3.44873153069 -0.0034467045102 0)
(3.46156617885 -0.00285358309993 -3.57471083189e-19)
(3.47172971313 -0.00222980047882 1.05217066232e-20)
(3.47936125068 -0.00161072498152 1.04751023239e-20)
(3.48469715225 -0.000995209696684 -3.2910958083e-19)
(3.48767443875 -0.000357138406792 3.28992327664e-19)
(3.48816404962 0.000330306447152 0)
(3.48590774707 0.00110437628209 -1.30895289768e-21)
(3.4804548763 0.00202472184493 6.73716488814e-19)
(3.4710483603 0.00319291794141 6.76332885231e-19)
(3.45639009612 0.00479765468479 -9.96728110361e-22)
(3.43420550187 0.0072208926603 5.03268298858e-22)
(3.39959007277 0.0114364366446 6.96849260689e-19)
(3.34576031697 0.0201615231434 0)
(3.20355165973 0.0476637442357 9.03235262314e-23)
(3.41066550024 -0.521879388429 1.14720426553e-16)
(3.32636156202 -0.514404647409 3.34619829543e-17)
(3.26495552375 -0.496507397602 -5.87878282565e-17)
(3.26952226949 -0.456977384188 1.13966618963e-16)
(3.2383149494 -0.403668728496 -3.00856829912e-19)
(3.26579745105 -0.192433749886 2.62303285801e-18)
(3.41067209441 -0.109084074897 0)
(3.53566358217 -0.0843870115276 2.30740360814e-18)
(3.6137357453 -0.0688780260551 -1.68141005799e-18)
(3.67170503207 -0.0549347561741 2.68925222558e-19)
(3.72185324686 -0.0441268887839 -5.23029327344e-19)
(3.76497271248 -0.0362330447981 0)
(3.80128427116 -0.0302148475709 0)
(3.83199263453 -0.0253720060371 -1.23644859612e-19)
(3.8581904514 -0.0213511130842 6.16580264051e-20)
(3.88057263883 -0.0179421583962 -4.24898655454e-19)
(3.89961376793 -0.0149924213625 4.82726601284e-19)
(3.91568363279 -0.0123887249085 3.00068086035e-20)
(3.92907022171 -0.0100487247559 2.24710693586e-19)
(3.93998009378 -0.00791859048813 -1.49794322117e-20)
(3.94854803975 -0.00596271570856 7.47143786278e-21)
(3.95482449467 -0.00411124456263 2.35532365476e-19)
(3.95881408224 -0.00226541629888 -2.432493561e-19)
(3.96042379636 -0.000331764846346 0)
(3.95942678592 0.00180470952166 0)
(3.95540590064 0.00431262035917 -4.83578117159e-19)
(3.94765385402 0.00746575630776 -1.45920761432e-18)
(3.9349724178 0.0117544641193 4.78127370264e-22)
(3.91535831213 0.0181423176839 0)
(3.88481753809 0.028822987383 -1.50170202113e-18)
(3.8399575857 0.0497157560036 6.2410922065e-23)
(3.74689533211 0.0984636251123 -1.02993861678e-18)
(3.60104457333 -0.56139538991 0)
(3.53788349602 -0.563425056758 0)
(3.49664138195 -0.549481336361 5.70931595835e-17)
(3.47034857908 -0.559726958524 -4.67775463835e-17)
(3.50611842463 -0.542640975546 -4.89691049695e-17)
(3.5549665447 -0.517433540205 4.13517877344e-18)
(3.5743353865 -0.48928598471 -3.93991533689e-18)
(3.58447215946 -0.439118430165 0)
(3.58300591994 -0.363322262877 -5.52290271131e-18)
(3.61483226552 -0.217653179669 3.69227020199e-18)
(3.70981869403 -0.134776762424 0)
(3.80266339762 -0.103521076929 4.32276313213e-19)
(3.86786608214 -0.085712267377 -4.17136510749e-19)
(3.91758077654 -0.0710175880677 0)
(3.96022859555 -0.0594218815725 3.98010059211e-19)
(3.99692900357 -0.0505009505152 7.7798101217e-19)
(4.02795952126 -0.0432805044171 3.81072985519e-19)