/*--------------------------------*- C++ -*----------------------------------*\
| =========                 |                                                 |
| \\      /  F ield         | OpenFOAM: The Open Source CFD Toolbox           |
|  \\    /   O peration     | Version:  2.3.1                                 |
|   \\  /    A nd           | Web:      www.OpenFOAM.org                      |
|    \\/     M anipulation  |                                                 |
\*---------------------------------------------------------------------------*/
FoamFile
{
    version     2.0;
    format      ascii;
    class       volScalarField;
    location    "500";
    object      epsilon;
}
// * * * * * * * * * * * * * * * * * * * * * * * * * * * * * * * * * * * * * //

dimensions      [0 2 -3 0 0 0 0];

internalField   nonuniform List<scalar> 
10011
(
1739.51971653
3022.16545356
4034.82821336
4725.13738675
5151.76442288
5390.57116242
5505.66666858
5544.29448961
5539.12427637
5512.1994631
5478.57664395
5449.20623425
5433.2310281
5440.00821278
5471.51523678
5531.89157094
5622.86833322
6605.05747467
187.180265745
344.286874941
469.488017168
568.68444067
639.785223697
686.396579586
714.724808436
730.480359864
738.019741321
740.384071543
739.54300738
736.619676427
731.988545512
723.677406499
713.940048279
703.551746776
683.030034881
649.102893503
41.8147806208
72.3031008304
98.0055551464
119.504001254
136.686643303
149.679647499
159.003327033
165.297842254
169.168797661
171.122881614
171.535077177
170.625559207
168.131641557
164.806099363
161.132677546
156.610637511
150.317852285
141.369441608
20.3485448064
27.9133940305
35.2743439165
41.9204316984
47.6674449729
52.4516239075
56.3035435976
59.3002868015
61.5330327754
63.0879289656
64.0117010808
64.3098395048
64.280858622
63.9530905757
63.3396853353
62.4221252249
61.1664577762
59.55587859
16.0512987069
18.1891531256
20.6081969337
23.0119057223
25.2547579046
27.2613944542
29.0014714958
30.4703367719
31.6749347278
32.6133816277
33.3190202402
33.8473384478
34.2212444547
34.4606706807
34.5857370463
34.6209059533
34.5920309796
34.4638287724
15.0109722338
15.5370277347
16.288944513
17.1443758267
18.0211884521
18.8664609535
19.6486570425
20.3502624969
20.9567832135
21.4798850365
21.92709872
22.3056541774
22.6248193028
22.8964278341
23.1361580014
23.3642870989
23.5970256199
23.7933116146
14.7573959985
14.7792350861
14.9146702823
15.1333598873
15.4040419012
15.7000008087
16.0003920944
16.2900156371
16.5656189036
16.8229991937
17.0613673154
17.2825032459
17.4907217579
17.6931037203
17.8996180542
18.1219161395
18.3651207591
18.5934369914
14.7057978456
14.5996747127
14.5491394962
14.5494723883
14.5910375693
14.6624676584
14.7531063053
14.8557784123
14.965019019
15.0773240726
15.191163315
15.3069287001
15.4269586457
15.5555434719
15.6985766936
15.8620120614
16.0457798071
16.221161711
14.6919255178
14.5453180289
14.4267740054
14.3372859726
14.2752582708
14.2372627937
14.219640213
14.2186802489
14.2313996117
14.2557650916
14.2908562843
14.3369838657
14.3957479116
14.4699435601
14.5630636761
14.6778460709
14.8119005391
14.9420090748
14.6879437378
14.5281762592
14.384415528
14.2575015175
14.147716511
14.054819627
13.9780301867
13.9163851373
13.8690515153
13.8355453607
13.8159030445
13.8108034059
13.8215960613
13.85014888
13.8983537356
13.9669767293
14.0527441535
14.137793234
14.6869065705
14.5234628116
14.3719182409
14.2322881961
14.1046927157
13.9892670132
13.8860694654
13.7951513304
13.7166651073
13.6509533597
13.5986208541
13.5605730661
13.5379758136
13.5320724277
13.5437746036
13.5728749364
13.6162341773
13.6608438401
14.6866465394
14.5221934905
14.3684456078
14.225056355
14.0918182655
13.9686814907
13.8556945839
13.7530143667
13.6609413647
13.5799413335
13.5106487228
13.4538406625
13.4103536845
13.3809103752
13.3658254276
13.3645263492
13.3744849606
13.3866502194
14.6866145505
14.5217932234
14.3672573197
14.2225815864
14.0874253235
13.9615874011
13.8449842849
13.7376500644
13.6397490258
13.5515749076
13.4735300135
13.4060787169
13.3496637578
13.3045748624
13.2707658107
13.2475912265
13.2332017005
13.2214964869
14.6866917278
14.5216732623
14.3666780651
14.2212697209
14.0850638403
13.957778689
13.8392305658
13.7293302779
13.6280839017
13.5355836887
13.4519830465
13.3774535662
13.3121216519
13.2559848126
13.2088118136
13.1700093879
13.1382947327
13.1096435201
14.6868416781
14.521706091
14.3663698532
14.2203810889
14.0833290827
13.9548795205
13.8347756884
13.7228335335
13.6189360747
13.5230213018
13.4350600758
13.3550237945
13.2828429472
13.2183594826
13.1612772672
13.1110975968
13.0669583024
13.0262599788
14.6870306938
14.5218322257
14.3662382458
14.2197694372
14.0819877764
13.9525173563
13.8310458964
13.7173193796
13.611134105
13.5123246188
13.420746286
13.3362530606
13.2586722294
13.187778715
13.1232716321
13.064743733
13.0116252878
12.9622893244
14.6872133088
14.5219840327
14.3661992714
14.2193469537
14.0809610469
13.9506323414
13.8280081212
13.7127863575
13.6047073517
13.5035428738
13.4090827299
13.3211195553
13.2394332682
13.1637767635
13.0938644335
13.0293580165
12.9698788591
12.9144594963
14.6873335632
14.522079221
14.3661522963
14.2190117271
14.0801687357
13.9491913243
13.8257013621
13.7093681473
13.5999002582
13.4970358208
13.4005315935
13.3101517329
13.2256572338
13.1467968548
13.0733006709
13.0048738154
12.9412510966
12.8818797573
14.6873731661
14.5220854718
14.366047477
14.218697924
14.0795351995
13.9481161752
13.824050205
13.7069923724
13.5966357385
13.4927022134
13.3949329608
13.3030792758
13.2168945414
13.1361276134
13.0605186616
12.9897968835
12.9237605022
12.8621000476
14.68736221
14.5220360104
14.3659054325
14.2183988519
14.0790142596
13.9473091128
13.8228915061
13.7054143444
13.5945678935
13.4900706065
13.3916602076
13.2990858101
13.2121011966
13.130459349
13.0539092778
12.9821955883
12.9151535798
12.8526154482
14.6873340175
14.5219783971
14.3657877385
14.218204585
14.078757178
13.9470322574
13.8226648692
13.7053338891
13.5947528486
13.490659162
13.3928051155
13.3009505432
13.2148567794
13.1342819118
13.0589783934
12.9886937315
12.9232742656
12.862610635
14.6873315352
14.5220595504
14.366089918
14.2190063338
14.080496112
13.9502847895
13.8281214218
13.7137709216
13.6070007302
13.5075706827
13.4152281484
13.3297056687
13.2507198665
13.1779714857
13.1111473469
13.0499242489
12.9940761575
12.9433812262
14.6876036772
14.5234666655
14.3701267869
14.2278626302
14.0968888846
13.9772282457
13.8687196507
13.7710465018
13.683765106
13.6063389677
13.5381726414
13.47863873
13.427097697
13.3829120659
13.3454571495
13.3141280324
13.2884384207
13.2677497913
14.6903437871
14.5356959586
14.4013917014
14.2891582132
14.1991807058
14.1304080287
14.0810524681
14.0489918119
14.0320287893
14.0280494024
14.0351091027
14.051467493
14.0755920088
14.1061457674
14.1419694497
14.1820585452
14.2256200687
14.2713785249
14.7129874646
14.6219970758
14.5934652723
14.6223617343
14.6992715203
14.8136638647
14.9558278262
15.1176540353
15.2926862118
15.4759184166
15.6635381169
15.8526763302
16.041191046
16.2274925374
16.4104092421
16.5890824262
16.7629633116
16.9305805031
14.8729304385
15.128332911
15.5598231886
16.1027045095
16.7087207642
17.3436310685
17.9847345462
18.6176860082
19.2335667944
19.8269574843
20.3947479937
20.9353608096
21.4482284663
21.9334405432
22.3915045006
22.8231779901
23.2294760875
23.6099620681
15.8787571958
17.7247615623
19.8405924907
22.0042636929
24.1254354832
26.1579162201
28.0792363369
29.8801010167
31.5578046705
33.1133680798
34.5502584496
35.8735596576
37.089341113
38.2041711836
39.224728453
40.1574644798
41.0085799288
41.7825141321
22.1640426823
31.1460483664
39.458372461
47.1939294565
54.4155685027
61.093698269
67.2120275883
72.7701255258
77.7776032487
82.2543295031
86.2296126498
89.7395342597
92.8238942363
95.5235018033
97.8778491103
99.9227479666
101.687495818
103.186464841
68.0732997058
115.223093837
155.523060791
193.083469535
228.002656246
259.584426501
287.481845298
311.634432635
332.172551077
349.362423249
363.551471896
375.118788009
384.439185384
391.860780881
397.692036394
402.192061602
405.550739684
407.808168244
723.169781516
1065.38187536
1375.37498647
1653.97202591
1910.2185766
2136.98482128
2330.82643474
2491.3035537
2620.06421397
2719.98552856
2794.52175776
2847.26188815
2881.65438246
2900.85440897
2907.65575578
2904.47567095
2893.39994339
2875.93313459
113.600941394
41.9143191195
52.0715726162
46.2896520335
45.7880919621
45.4986216296
45.3935280624
45.450896252
45.6348087287
45.9096946758
46.2486705645
46.6329120946
47.0490958583
47.487511615
47.9370165736
48.3966389016
48.8670419624
49.3488432467
49.8423756769
50.3474516573
50.8629253614
51.3861899839
51.9125113415
52.4339573218
52.9373919886
53.4011743694
53.7849525242
54.0396287138
53.7258650013
138.821840073
66.1150048148
43.7397001632
33.1595335753
25.404384751
21.6021209514
18.9577518764
17.0239902796
15.6609357261
14.7186899019
14.078523995
13.66531872
13.4298792799
13.3369460526
13.3603618173
13.4805904025
13.6829472885
13.9625350274
14.3079206953
14.7092834866
15.159155443
15.6514634521
16.1800328805
16.7426950786
17.338078413
17.9655692559
18.6263801828
19.3255322171
20.0774410874
20.9249435354
22.0125772882
24.0216198155
169.722093437
88.6142929626
66.0394975918
47.0852617445
36.0351054883
27.527805129
22.1147868195
18.6187492223
16.5615517187
15.2926952554
14.2061290276
13.2611943374
12.4991638904
11.900733241
11.4328658015
11.073061173
10.8060696297
10.6196495489
10.5036122034
10.4496493233
10.4510113198
10.5026448795
10.6001904814
10.7397853041
10.918008306
11.1321832055
11.3811283525
11.662158816
11.97417087
12.317381153
12.6941552352
13.1109189895
13.5829918078
14.1480213995
14.9017911928
16.1575856031
185.143749421
97.3796216544
73.7115569361
53.4082552047
41.5410854904
32.3285819389
26.2515764832
21.8365949894
18.6699551221
16.4876710149
15.0006222802
14.0288441128
13.4697416825
13.1528514949
12.8346327264
12.4898604267
12.1722172085
11.8977668482
11.6614650918
11.4591741096
11.2892037742
11.1499537695
11.0396005722
10.9564593629
10.8991065617
10.8663804915
10.8573291574
10.8711779704
10.90731931
10.9653854903
11.0455591278
11.1481854357
11.2743715952
11.4254875268
11.6045069871
11.8175401205
12.0771932625
12.4103468165
12.872087386
13.6015173047
199.179293874
105.17563841
80.417291482
58.7598676558
45.9817128613
35.9461616591
29.301827882
24.4346739007
20.8916310478
18.3714648585
16.5216828451
15.1560196796
14.1636925481
13.4631537087
13.0077832695
12.7498613599
12.6521957258
12.6408445991
12.5966964609
12.4948747347
12.3712788613
12.2476732276
12.1284889824
12.0153055125
11.9102635924
11.8149063316
11.7299564316
11.6557396373
11.5924520087
11.5402472925
11.4992819181
11.4697565008
11.4519557674
11.4462945245
11.4533586245
11.474443983
11.5108022022
11.5645458458
11.6390300271
11.7400214837
11.877886333
12.071807141
12.3537748905
12.7898579404
213.292209945
112.787143233
86.9031235116
63.9188615603
50.2723257564
39.4484033845
32.2511627687
26.9335161018
23.0154931772
20.1987521203
18.1142599879
16.5446616565
15.3588657595
14.4581439797
13.7805330492
13.2846693168
12.93190145
12.6944360636
12.5639196441
12.5255106011
12.5592972003
12.6247681867
12.6589684562
12.6414528193
12.5917033436
12.5275381635
12.4556948462
12.3793882857
12.3016465958
12.2249051803
12.1507755621
12.0803467231
12.0144438358
11.9537414471
11.8988282289
11.8502660536
11.8086476768
11.7746362101
11.7490196484
11.733016058
11.7276993512
11.735318655
11.7591737739
11.8044741985
11.8796958829
11.9987329322
12.1805959094
12.4595013671
238.89016974
130.531310668
110.323102905
92.2559805923
69.2124478522
54.558100831
42.9088433787
35.1534917642
29.3806569405
25.0860424817
21.980739974
19.6760054261
17.9247829711
16.5841447976
15.550438519
14.7528802158
14.1389724782
13.6612577324
13.2847281026
12.9964293782
12.7873093243
12.6427303353
12.5518156073
12.5138102958
12.5238946589
12.5701651358
12.6283968758
12.6635268788
12.6603614854
12.6278755899
12.5781809918
12.5176076052
12.449618596
12.3771900353
12.3028068515
12.2282743873
12.1548963738
12.0836844163
12.0154723297
11.9509860426
11.8909058515
11.8359275354
11.7867761602
11.7443919839
11.7094738218
11.6833777393
11.6682694484
11.6672355083
11.6848796874
11.728106432
11.8071131636
11.9333762112
12.1264099494
258.272665631
141.582857099
120.414707012
101.497536555
76.9440479848
61.3565466639
49.0371376941
41.0054464087
34.9217053913
29.8960088198
25.9286550358
22.9641239551
20.7055975702
18.9492574282
17.5755359989
16.4952222427
15.6442042824
14.9713355045
14.4309252387
13.9883939974
13.6284513142
13.3383352696
13.1003124244
12.9013422561
12.7399322026
12.6160118915
12.5249054641
12.4626360878
12.4301842199
12.4259580392
12.4425126441
12.464740339
12.4722143368
12.4542018188
12.4140207121
12.3590205558
12.2940996776
12.2222476485
12.1459462323
12.0673162738
11.9879920818
11.9092090836
11.831950719
11.7570442737
11.6852231835
11.6171827321
11.5536315136
11.4952906467
11.4431161242
11.3973324303
11.359702431
11.3322567472
11.3178196884
11.3204001083
11.3455967385
11.4009687722
11.4935209815
11.6355432784
277.668118412
152.953925384
130.538404242
110.56838046
84.3213879577
67.661301617
54.3518138231
45.645449661
39.0266354273
33.5321135925
29.1814340344
25.9349559155
23.4468021668
21.4434029555
19.7979972092
18.4580655566
17.374176121
16.4996701192
15.7918211803
15.2095501334
14.7208675297
14.3113289264
13.9679331304
13.673239293
13.4137463591
13.1860092269
12.9874540025
12.8116174247
12.6537729164
12.5151284253
12.3977685888
12.3009469476
12.2234140816
12.1659914063
12.127798285
12.1038761853
12.0845748024
12.0575523466
12.0153873863
11.9586446703
11.8913249438
11.8167439863
11.7371513836
11.6544124051
11.5701546305
11.4856912926
11.4020539921
11.3200847655
11.2405080691
11.1639814627
11.0911410363
11.0226239604
10.9591185387
10.9008949546
10.8490800827
10.8051248377
10.770872421
10.7488323695
10.7424192788
10.7561246826
10.7955779404
10.8650928133
10.9730756083
297.816657511
164.57615961
140.75007448
119.666725813
91.7280011911
74.0394298868
59.7633404865
50.3877323067
43.2212648857
37.2257418449
32.4352888613
28.8319824526
26.0676949955
23.8363301735
21.9917221516
20.4781825948
19.2437961941
18.2290825212
17.3824463009
16.6676448725
16.0563427431
15.5273114643
15.0710790564
14.6771709945
14.3297924641
14.0162376452
13.7329594677
13.4768942353
13.2414707881
13.0213989967
12.8164101693
12.6268350197
12.4508011335
12.2868323643
12.1363582294
12.0013800417
11.8823794576
11.7790495171
11.691725196
11.6195755419
11.5590939982
11.5039747922
11.4464907168
11.3815017255
11.3083612564
11.2289476085
11.1452484833
11.0587725845
10.970800809
10.8824785501
10.7947687146
10.7084561599
10.6241997198
10.5425817788
10.4641467936
10.3894353114
10.3189753745
10.2534365355
10.1924218517
10.1377656668
10.090706801
10.0528600121
10.0263807227
10.0140996069
10.0195633834
10.0469618544
10.0989748692
10.1816566624
320.238468765
177.181743973
151.633749156
129.243482832
99.4519831272
80.6880051818
65.4051313041
55.3444676461
47.618603875
41.1062079319
35.8551877365
31.87436029
28.8181923047
26.3431343188
24.2818679377
22.5762622874
21.1765134686
20.0218548997
19.0527909166
18.2268740044
17.513271673
16.8892599147
16.3416559733
15.8594085669
15.4294766522
15.038156031
14.6762264349
14.3418827762
14.0330304298
13.7439545707
13.4697642762
13.2100327925
12.9647028168
12.7316757225
12.5089968325
12.2970543705
12.0966728066
11.9076050115
11.7295931247
11.5637197117
11.4114050719
11.2732513185
11.1491908322
11.0391340038
10.9421572448
10.8556618057
10.7754044329
10.6963788595
10.6149808847
10.5301409769
10.4425104266
10.353122885
10.2628792433
10.1725841369
10.0829834873
9.99473235225
9.9083867082
9.82442936486
9.74330143449
9.66542919608
9.59123640418
9.52114583976
9.45495467361
9.39384520484
9.33878045772
9.29083611097
9.25140600805
9.22230107503
9.20582104389
9.20473091871
9.22214839945
9.25976685681
9.32204466043
350.442793442
195.779303749
172.831621681
160.885839007
140.252405995
108.330122465
87.9834629491
71.4163338033
60.5592672451
52.2034581959
45.1124058657
39.3531868225
34.9727386648
31.6192122205
28.9005886409
26.6230764652
24.7247444985
23.1582005135
21.8624469942
20.7691870776
19.8297081402
19.0117823795
18.29304117
17.659883001
17.0989619587
16.5951844572
16.1338874674
15.7053953532
15.3066835156
14.9357190711
14.5875792
14.2560253011
13.9372816797
13.6316084611
13.3394199282
13.0591327255
12.7890813388
12.529545026
12.281067693
12.043135324
11.8151022188
11.5973370771
11.3904952129
11.1947390748
11.0101566166
10.8374075992
10.6773018503
10.5301961512
10.3959546331
10.2742052071
10.1639747614
10.0632742679
9.96916503591
9.87831255193
9.78815415868
9.6975795168
9.60660192146
9.51564839298
9.42518624533
9.33567449364
9.2475646798
9.1612755448
9.0771803655
8.99561753034
8.91690909155
8.84137747415
8.76933442854
8.70112093272
8.63620052017
8.57623789323
8.52193163989
8.47416193359
8.43407516894
8.40313906731
8.38317535727
8.37630808165
8.38485399873
8.40991352841
8.45477296621
379.728465092
212.082827688
187.186664859
174.550424938
152.767812576
118.776419802
97.3114474928
79.8516918506
68.7136646496
60.4237665761
53.2644141718
46.7323909659
41.2144669872
36.9275168149
33.5992189091
30.86232659
28.5337387439
26.5636713314
24.9177687577
23.5440683486
22.3733310025
21.3549128577
20.4575578706
19.6611696235
18.9540571012
18.3221998144
17.7497331614
17.2223235001
16.7310578919
16.2731620017
15.8460888278
15.4443899579
15.061594917
14.6938578815
14.3408978158
14.0029159508
13.678319274
13.3644694851
13.0598584709
12.7649840401
12.4805835708
12.2064241698
11.9420543783
11.6877770908
11.44402735
11.2107332648
10.9876741635
10.7750429218
10.5731684524
10.3821806017
10.2021429649
10.0333520804
9.87613630109
9.73057227055
9.59639896934
9.47309705606
9.35973307696
9.25476813498
9.1561242011
9.0615330401
8.96916278161
8.87802906344
8.7878663056
8.69876223904
8.61091210499
8.52455013463
8.43993212592
8.35731394163
8.27693841581
8.1990378414
8.12384371683
8.05158928405
7.982494357
7.91614415509
7.85368392437
7.79568535098
7.74272866273
7.69554747227
7.65507770201
7.6224918181
7.59921283339
7.58685845355
7.58715320195
7.60084419221
7.63032813229
413.172691388
231.493777999
206.193306693
198.539465259
189.990213253
167.327107666
130.165144087
106.899062199
87.8969998511
75.8667063175
66.9209532196
59.1589662166
52.0369971838
46.0137871209
41.3807879595
37.8448062469
34.9533218161
32.4222978994
30.1659204241
28.1975838411
26.5209489845
25.1025847461
23.8793707448
22.8014612908
21.8396090921
20.9768853795
20.2043810239
19.5082153607
18.8718838587
18.281382603
17.7286894596
17.211806454
16.728178874
16.2722642437
15.8378848624
15.4215625487
15.0230627741
14.642283996
14.2773449643
13.9254349736
13.5848879671
13.2558023475
12.9384525687
12.6322995112
12.3361843416
12.0494162753
11.77226919
11.505156804
11.2481109554
11.0009898355
10.7639261621
10.5370760421
10.3203788224
10.1136754478
9.91696924662
9.7303243188
9.55373281874
9.38715020691
9.23061692313
9.08416479318
8.94767402492
8.82080446922
8.7030066071
8.59345333526
8.49096508974
8.39406274651
8.30118477272
8.21102913806
8.12279473211
8.03613859262
7.950989258
7.86739389139
7.78545662694
7.70531559227
7.62712462062
7.55104153263
7.47722704227
7.40584869628
7.33706933613
7.27102988335
7.20730530037
7.14718571912
7.09102489372
7.03927016643
6.99250082289
6.9514539945
6.91704368206
6.89036311227
6.87263378082
6.86514178265
6.86842123227
6.88419293584
444.948520555
248.900771733
221.48816926
213.434848537
204.705524627
181.047816483
141.797973126
117.520018957
97.5334590748
85.0912314286
76.1552640661
68.6745493804
61.6405631835
54.8526745266
48.9486454974
44.3296782795
40.7757820612
37.8471648702
35.2570177586
32.921076961
30.8668514331
29.114489941
27.6307729692
26.3403190865
25.1781202155
24.1101358889
23.1253332491
22.2214385236
21.398371324
20.6464216074
19.9507615151
19.2991026519
18.6853875225
18.1090994204
17.5681423838
17.0569704648
16.5697055301
16.1032824379
15.6577127609
15.2328900749
14.8268643448
14.4369199931
14.0614451297
13.7003479874
13.3535942377
13.0203272562
12.6991503076
12.3891157787
12.0901174683
11.8021112914
11.5247612469
11.2574129797
10.9996008899
10.7513103983
10.5126053987
10.2834204379
10.063603745
9.85309920143
9.65185659582
9.4597367284
9.27655651151
9.10219610538
8.93657358084
8.77958268756
8.63110244005
8.49103303236
8.35926387671
8.23558429832
8.11964298431
8.01093773575
7.90878704792
7.8123062575
7.72044776629
7.63213605601
7.54645671827
7.46279650917
7.38083440065
7.30044646881
7.22161377024
7.14437499138
7.06880464812
6.99499801055
6.92306134922
6.85310949814
6.78526273228
6.71962573451
6.6557905233
6.59476106885
6.53679513652
6.48218407194
6.4312941726
6.38458929145
6.34264883617
6.30618026277
6.27601757694
6.25308048728
6.2383327048
6.23217705338
6.23583091401
480.124882334
267.544711184
237.482972318
228.744084924
219.567601533
194.61758251
153.02461498
127.762302788
106.635911661
93.5023378074
84.0539386655
76.1028443774
68.5698694989
61.2445912637
54.8429436485
49.847784646
46.0648995012
43.0068470302
40.3091592068
37.7919214957
35.4373469617
33.3159926756
31.4782953247
29.9094067536
28.5374514499
27.2940883899
26.1432788503
25.0769376767
24.098165515
23.2071493184
22.3897065219
21.6259932697
20.9007113598
20.2066442136
19.5436160659
18.9152294493
18.3214035757
17.7577877624
17.219529256
16.7045439894
16.2133967694
15.7461480575
15.3007773402
14.8746038927
14.4660536499
14.0749150878
13.7010040021
13.3432803492
13.0002464762
12.6708189828
12.3546042476
12.0512540839
11.7601212845
11.4803063634
11.2110918394
10.9521565179
10.7032176733
10.4639143681
10.2337457137
10.0123030301
9.79938808979
9.59486428594
9.39856279038
9.21029012713
9.02988671455
8.85721314153
8.692093876
8.53434289003
8.38379979378
8.24033397914
8.10380770355
7.97407804751
7.85100121502
7.73442035283
7.62411419307
7.51977043475
7.42097138121
7.32718991202
7.2377796804
7.15200802383
7.0691391311
6.98854047789
6.90976505979
6.83255243261
6.75678065756
6.68241160392
6.60945729135
6.53796187244
6.46798962592
6.39961712599
6.33293024485
6.26801396663
6.20488859387
6.14337144073
6.08430083748
6.02784332481
5.97421499795
5.92369729976
5.87664833847
5.8335137209
5.79483337806
5.76123822071
5.73341914639
5.71210197943
5.69760450289
5.69077951613
524.124073159
290.738010315
258.040304317
250.464820269
247.813577699
239.448667299
212.074550613
166.220799426
139.289553245
116.617331131
102.606696433
92.5456166122
84.0365919424
75.9030813278
67.9205368755
60.8887332619
55.3759181391
51.2145188972
47.8678759067
44.9157659672
42.145565974
39.533249404
37.1683835851
35.1288461674
33.4077617701
31.9181742851
30.5658572122
29.2891705699
28.067236493
26.9089442572
25.832634963
24.8477996419
23.9424959346
23.0957953611
22.2917480309
21.5244521677
20.7958775908
20.1094154046
19.4623773415
18.8475689769
18.25786036
17.6893498144
17.1421741903
16.6186728436
16.1199031
15.6445203813
15.1904092514
14.7564054042
14.3423922446
13.9481670557
13.5725310638
13.2138775654
12.871007246
12.5433029951
12.2302397652
11.930970152
11.6444477989
11.3697979449
11.1064644048
10.8539374538
10.6116332974
10.3788769722
10.1550881547
9.93987796343
9.73289878318
9.53379419858
9.34216714807
9.15767140017
8.98006287171
8.80915091019
8.64474496991
8.48665825238
8.33472095795
8.18878483043
8.04869259512
7.91428910085
7.78543143349
7.66199646776
7.54386041764
7.43089640375
7.3229694834
7.21993039916
7.1215869729
7.02768711765
6.93790782107
6.85185743846
6.76907613327
6.68905861365
6.61130691675
6.53539079993
6.46099710359
6.38793280926
6.31610051819
6.24546603561
6.17603534623
6.10784072694
6.04093139172
5.97536713691
5.91121370231
5.84852584482
5.78702534914
5.72742157056
5.66984113124
5.61442621001
5.56135457457
5.51084992672
5.46319110264
5.41872057064
5.37784920403
5.3410536134
5.30885423903
5.28180225228
5.26015812158
5.24451969797
600.778589609
330.176646187
291.459268689
282.176956538
280.39585369
278.395691554
268.038708227
235.665259696
183.214638395
154.817672936
130.567262422
115.675611465
105.229701838
96.7438677297
88.9430545742
81.061587228
73.0327208385
65.7995440435
60.0659820573
55.7261614149
52.2341723624
49.1309810279
46.1754199252
43.3380771225
40.7309827454
38.4665125577
36.5557782018
34.9075488398
33.4097072286
31.9865821199
30.614161078
29.3098373708
28.1053978776
27.0159336523
26.02481141
25.1001472919
24.2145542557
23.3552309272
22.5235490687
21.7291117981
20.9803541941
20.2767175837
19.6111470693
18.9763909645
18.3688841442
17.7890334188
17.2384876967
16.7165597349
16.2201367702
15.7455840408
15.2904165983
14.8540612502
14.4370698216
14.0397186703
13.6612023133
13.3002377706
12.9558450187
12.627441536
12.3145141044
12.0161405827
11.7312118084
11.4587827282
11.1981680314
10.9487741754
10.7099091444
10.4808212911
10.2608456321
10.0494727808
9.84624486862
9.6506965866
9.46234788242
9.28077401853
9.10564778137
8.93667825407
8.77358287041
8.61607414465
8.46389653982
8.31684751349
8.17476273543
8.03748834034
7.90488100716
7.77680873329
7.65315604157
7.53380844382
7.41865609266
7.30759485438
7.20053234893
7.0973747523
6.9980252556
6.90237639549
6.8103070508
6.72166509584
6.63625882222
6.5538491466
6.47415398638
6.39685233644
6.32160082647
6.2480670187
6.17596498111
6.10508410381
6.03529255466
5.96652375007
5.89875690225
5.83200148701
5.76628696146
5.70165563695
5.63815737186
5.57584379517
5.51471921842
5.45477092785
5.39647174616
5.33988993837
5.28512316575
5.2323031902
5.18159964238
5.1332252014
5.08744081786
5.04455852971
5.00493946063
4.96897882186
4.93710049435
4.90952507022
4.88667872903
1046.94816571
580.629569622
516.079857276
499.208837882
489.459515818
462.651648998
389.600660637
283.032657343
230.141282318
183.911993067
157.413220083
140.219839132
127.28437978
116.330060627
106.060995131
95.6543377469
85.1736121489
75.903932275
68.7196596145
63.4847675553
59.4897188867
56.0917712387
52.9002138764
49.7355758047
46.6203934539
43.7137363156
41.1702357512
39.0294958763
37.1968796309
35.5367290344
33.9541853943
32.4185597544
30.9521923273
29.5986968876
28.3817700311
27.2860939312
26.273100017
25.3090891703
24.3788852456
23.4855234481
22.6419894565
21.8578434132
21.1299083939
20.446077108
19.7935861819
19.1649241488
18.5588339981
17.9786102374
17.4280464012
16.9076741669
16.4148034588
15.9459018941
15.4985025782
15.0718441149
14.6659219246
14.2800380759
13.912488364
13.5612320503
13.2246554696
12.9019820448
12.5930057986
12.2975647606
12.0150831688
11.7447592791
11.485893726
11.2379434566
11.0004489448
10.7727893296
10.5542697987
10.3442689045
10.1422844886
9.94788291432
9.76060539949
9.57998046967
9.40558455472
9.23707239815
9.07413594175
8.91647443525
8.76379026109
8.61581846453
8.47234382223
8.33317501266
8.19812889541
8.06702477094
7.93970063253
7.81602239803
7.69587917521
7.57916998622
7.46580252496
7.35569137998
7.24876187925
7.14494131987
7.044160898
6.94635359199
6.85145788796
6.75940965805
6.67014046092
6.58357111047
6.49960959526
6.41814082997
6.33902201677
6.2620782097
6.18710675909
6.11388234295
6.04216925822
5.97174314818
5.9024129409
5.83403838847
5.76653268881
5.69985465057
5.63399643779
5.56897288484
5.50481387356
5.44155893902
5.37925337431
5.31794716791
5.25775490168
5.19895018785
5.14141866886
5.08525342767
5.03055556677
4.9774428477
4.92605594962
4.87656434418
4.82917129457
4.78411670479
4.74167655528
4.70215329848
4.6658751339
4.63302736599
4.60391511049
1305.61262859
721.907120859
639.364441994
612.44021747
580.970946327
502.249892123
379.239069375
309.996113116
252.526426739
217.473954088
193.126186543
173.568144829
155.724498676
137.8233564
120.004464072
104.598022372
92.7914350545
84.3511987354
78.1239632142
73.0687077249
68.5430716177
64.1836243178
59.8429376191
55.5980494272
51.6752315318
48.2820097284
45.4792836149
43.1477226642
41.0991378962
39.1832266919
37.3169158403
35.4862334503
33.7286701443
32.1021216441
30.6413123963
29.333974322
28.1361109144
27.0076314167
25.9289150353
24.9011581922
23.9380408067
23.0501303204
22.2346676215
21.4775740938
20.7637738763
20.0839980251
19.4360676015
18.8227784188
18.2470218404
17.7075164572
17.1992425355
16.7162309695
16.2541033487
15.8109576636
15.3870372643
14.9832597188
14.5996004288
14.234772215
13.8869395006
13.5545550021
13.2367494045
12.933062975
12.6428983725
12.3652729428
12.0990351574
11.8431941415
11.597124534
11.360479776
11.1330017666
10.9142876418
10.7038337947
10.5011814423
10.3059408475
10.1177737319
9.93628077347
9.76103373065
9.59163887387
9.42776085176
9.26910650267
9.11537808547
8.96627914363
8.82154094432
8.68093648931
8.54426309009
8.41132623894
8.28193766953
8.1559289165
8.03315856799
7.91350027655
7.79683349177
7.68304120552
7.57201780596
7.46367369061
7.35793371033
7.2547301505
7.1540019994
7.05569284112
6.95975286349
6.86613417297
6.77479120927
6.68567863377
6.59875295249
6.51396732456
6.43127025767
6.35060061727
6.27188604839
6.19503683896
6.1199437481
6.04647567078
5.97448366328
5.90380587385
5.83427684689
5.76574198191
5.69807172209
5.63117218253
5.56498714442
5.49949293843
5.43469041326
5.3705974115
5.30724309345
5.24466390092
5.18290095707
5.12199961763
5.06202865043
5.00334077341
4.94580728252
4.88944878254
4.83433582326
4.7805553631
4.72821393673
4.67744090359
4.62839152559
4.58124897015
4.53622435794
4.49355067997
4.45348425345
4.4161819
4.38187905568
1643.75091739
907.913592536
804.021497529
769.41055817
728.380524408
627.22252523
470.60102576
382.789924334
309.98225905
265.184707457
233.451873097
207.091695157
182.337997473
158.503951319
137.946507539
122.165959547
110.567016009
101.530488585
93.7762691602
86.5496539936
79.5334552859
72.8198211794
66.7432800933
61.5839383942
57.4216222256
54.0671265765
51.2246173958
48.64999006
46.1846944395
43.7556163385
41.3703994341
39.0935840186
37.0085413872
35.1645295059
33.5446105658
32.0857194952
30.7246862643
29.4205524476
28.1601444505
26.9523794735
25.8184846968
24.7744770385
23.8198170272
22.938979944
22.1144896973
21.335197602
20.5979408287