/*--------------------------------*- C++ -*----------------------------------*\
| =========                 |                                                 |
| \\      /  F ield         | OpenFOAM: The Open Source CFD Toolbox           |
|  \\    /   O peration     | Version:  2.3.1                                 |
|   \\  /    A nd           | Web:      www.OpenFOAM.org                      |
|    \\/     M anipulation  |                                                 |
\*---------------------------------------------------------------------------*/
FoamFile
{
    version     2.0;
    format      ascii;
    class       volScalarField;
    location    "500";
    object      k;
}
// * * * * * * * * * * * * * * * * * * * * * * * * * * * * * * * * * * * * * //

dimensions      [0 2 -2 0 0 0 0];

internalField   nonuniform List<scalar> 
10011
(
0.773329973289
1.11759146032
1.35500171492
1.50536828482
1.59453745581
1.64323842866
1.66624526747
1.67359010802
1.67191531676
1.66558572325
1.65751280547
1.64973896062
1.64386199959
1.6413578726
1.64188712132
1.64489909511
1.6480957655
1.72071188678
0.492772081011
0.515726739444
0.519700259352
0.518737240796
0.515087548704
0.509862330851
0.504019493552
0.498230505331
0.492897406133
0.488220764341
0.484253516189
0.480929986305
0.478062290055
0.474876204165
0.471513454107
0.467381508462
0.458505122798
0.439903068888
0.412179189995
0.424400002776
0.422229367692
0.414565559925
0.404645509773
0.393872147564
0.382989826926
0.372426839666
0.362431124695
0.353135306252
0.344591572751
0.336790300796
0.329708708353
0.323444676969
0.318021813981
0.313257993125
0.309035291833
0.305612228053
0.381902972554
0.385994367529
0.38637451314
0.383983418288
0.379837697142
0.374656718237
0.368920304422
0.362951700669
0.356972906736
0.351141179249
0.345580358081
0.340405166714
0.335678769251
0.331499662329
0.328035125077
0.325590654827
0.324725014486
0.326098397055
0.375246800984
0.375549150134
0.375007912945
0.373551569955
0.371341557217
0.368577038809
0.365444073901
0.362100271076
0.358675963871
0.35528505369
0.352026815846
0.348988921217
0.346281990091
0.34406002785
0.342560069013
0.342151286388
0.343294979203
0.345934342584
0.373465971418
0.372232398533
0.370965914249
0.3694804454
0.367748646817
0.365806009093
0.363711516748
0.36153240504
0.359338636466
0.35719992207
0.355189075179
0.35339241869
0.351923073865
0.350939572703
0.35066732698
0.351404705922
0.353407470178
0.35627614044
0.372978199446
0.371128385835
0.369432477732
0.367785580888
0.366140071612
0.364482545669
0.36282098328
0.361179560642
0.359594007807
0.358108852569
0.356780906762
0.35568470738
0.354920703582
0.354624539421
0.354971215091
0.356155055876
0.358266232846
0.360828410787
0.372862114056
0.370815085911
0.368937571022
0.367179469293
0.365509647336
0.363912131129
0.36238369645
0.36093447665
0.359585944808
0.358371037947
0.357335940271
0.356543630717
0.356078179333
0.356047485593
0.356578275488
0.357788840097
0.359687292987
0.361837850275
0.372824033506
0.370699877526
0.368735730641
0.366908715994
0.365202916737
0.363608821397
0.36212344812
0.360752194825
0.359510226645
0.358423180158
0.357528628849
0.356878192137
0.356539142513
0.356593213333
0.357127706587
0.358208782969
0.359803858174
0.361536428418
0.372808987904
0.370650977926
0.368641609682
0.366770336648
0.365030522243
0.363419236225
0.361936513528
0.360587602004
0.359384812538
0.358348628496
0.357508818455
0.356905372041
0.356588198238
0.356613731549
0.357035260898
0.357880955429
0.359099728727
0.360388834462
0.372802756308
0.370629547129
0.368596992478
0.36669919796
0.364933159883
0.363298950162
0.361798879407
0.360438736169
0.359229209283
0.358186762845
0.357334186449
0.356700588456
0.356320009802
0.356227445914
0.35645063761
0.356994577667
0.357806560458
0.358658518877
0.372800235778
0.370618959527
0.368572797998
0.366657603722
0.364871129784
0.363213856364
0.361688393678
0.3602999795
0.359057282273
0.357972825384
0.357062982941
0.356347356094
0.355847026529
0.355581074343
0.355560750608
0.355779911121
0.356193810119
0.35663934964
0.372799885442
0.37061351483
0.368557644978
0.366628835442
0.364824715787
0.363145057332
0.361591516273
0.360167770169
0.358879860226
0.357736263413
0.356747559646
0.355925583131
0.355281835029
0.354824953325
0.354557135573
0.354468836536
0.354526454878
0.354617943957
0.372801191811
0.370611444592
0.368547927036
0.366607338135
0.36478696439
0.363085616126
0.361503600647
0.360042718463
0.358706331641
0.35749924356
0.356427271891
0.355496468806
0.354711936079
0.354076229382
0.353587408716
0.353236315049
0.352999692446
0.352802887252
0.372803753528
0.370611918366
0.36854238516
0.366591585557
0.364756352259
0.363034579968
0.361425288673
0.35992857607
0.35854555224
0.357278147399
0.356128725346
0.355099494194
0.354191732194
0.35340488052
0.352735570879
0.352176285031
0.351711787488
0.351293642284
0.372807008302
0.370614060844
0.368539982078
0.366580685214
0.36473247221
0.362992440878
0.361358550287
0.359829559956
0.358404916141
0.357084555269
0.355868600166
0.354756957958
0.353748851846
0.352842334723
0.352033828998
0.35131748646
0.350683723078
0.350102131624
0.372810165584
0.370616694199
0.368539285962
0.366573244153
0.364714328201
0.36295898538
0.36130438268
0.359748336096
0.358289187738
0.356925630394
0.355656477803
0.354480395147
0.353395616726
0.352399681035
0.351489210758
0.350659624257
0.349905053049
0.34920734252
0.372812247381
0.370618358702
0.368538489989
0.366567410488
0.364700442591
0.362933584595
0.361263496905
0.359687419689
0.35820305362
0.356808405514
0.355501606256
0.354280717326
0.353143545028
0.35208747878
0.351109374992
0.350205444052
0.349372028513
0.348598665625
0.372812931
0.370618467375
0.368536666311
0.366561925937
0.364689319079
0.362914616443
0.361234217089
0.359645060014
0.358144511951
0.356730224507
0.355399977583
0.35415152692
0.352982467905
0.351890123488
0.350871476966
0.349923150504
0.349042700779
0.348224156939
0.372812737173
0.370617591994
0.368534143969
0.366556580413
0.364679924947
0.362899896799
0.361212788184
0.35961539258
0.358104899947
0.356678756626
0.355334526008
0.354069764685
0.352881917054
0.351768231203
0.350725717704
0.349751177161
0.348842813312
0.347997298351
0.37281223249
0.370616480164
0.368531670369
0.366552000754
0.364672689556
0.362889537191
0.361198801021
0.359597178561
0.358081703691
0.356649607597
0.355298203613
0.354024794207
0.352826593026
0.351700663954
0.350643900147
0.349653081339
0.348726696962
0.347863083402
0.37281195916
0.370616428207
0.368531797932
0.3665527248
0.364674849188
0.362893938722
0.361205935414
0.359607067991
0.358093780864
0.356662650093
0.355310338784
0.354033556599
0.352829015337
0.351693389899
0.350623310347
0.34961542696
0.348668373335
0.34778172252
0.372813584153
0.370623743212
0.368549054311
0.366584814396
0.36472591479
0.362966147282
0.361299122626
0.359718788988
0.358219531447
0.356796222563
0.355444244719
0.354159443206
0.352938040699
0.351776548069
0.350671704305
0.349620483921
0.348622134427
0.347678309082
0.372827726676
0.370676249282
0.368660732233
0.366769330132
0.364986307932
0.363294964814
0.361680932676
0.360133024477
0.358642919036
0.357204667635
0.355814161464
0.354468600936
0.35316605008
0.3519051061
0.350684688153
0.349503941356
0.348364320298
0.347271268276
0.372923697904
0.370973933062
0.369206447024
0.367554792104
0.365964138075
0.364397389628
0.362834473016
0.361267225365
0.35969459793
0.358119456381
0.35654654094
0.35498119905
0.353428669331
0.351893727201
0.35038056004
0.348892767059
0.347435554771
0.346020660226
0.373481355366
0.372383418527
0.371377296201
0.370242985415
0.368898635758
0.367338747246
0.365593197811
0.36370167968
0.361702164259
0.359627383604
0.357504360007
0.355354929212
0.353196558971
0.351043177294
0.348905920454
0.346793765434
0.344716027701
0.342690263682
0.376467292173
0.37824961467
0.37888253613
0.378248683853
0.376643578236
0.374369071523
0.371646677807
0.368629446264
0.365422890828
0.362101141772
0.358717690836
0.355312128271
0.351914357085
0.348547286275
0.345228620647
0.341972091301
0.338789713797
0.335703647725
0.392537949796
0.401174049682
0.40193183412
0.399251218647
0.395027574436
0.390056628031
0.384715407422
0.379200774628
0.373628253865
0.368074770818
0.362596358398
0.357235529859
0.352024694309
0.346988027783
0.342142648159
0.337499320017
0.333063039899
0.328845222378
0.438449311941
0.450018642004
0.451120319683
0.449975108583
0.448326347571
0.446464468352
0.444471614947
0.442390954197
0.440255029299
0.438097029902
0.435951148544
0.433849206242
0.431817973736
0.429877799289
0.42804174889
0.42631363139
0.424679235671
0.423089500082
0.544762696415
0.705316523654
0.836234254519
0.945654888047
1.04096464082
1.12179872402
1.18865001993
1.24260153998
1.28505635322
1.31752456978
1.34148592259
1.35831202364
1.36922879458
1.37530458543
1.37745401685
1.37645007997
1.37294919353
1.36741871641
0.173095151304
0.157214208034
0.152213137294
0.14874649031
0.146929147636
0.145937175608
0.145481352252
0.145424190151
0.145652884065
0.146076569786
0.146631580785
0.147275183625
0.147978057753
0.148719349542
0.149475692537
0.150245158338
0.151029153784
0.151828890695
0.152644909142
0.153476624747
0.154321481887
0.155173998817
0.156024511776
0.156857146099
0.157645980848
0.158348735652
0.158886956301
0.159166019854
0.158326192348
0.19401423603
0.177378703902
0.16226501335
0.137676733147
0.122899583056
0.114870927416
0.108686683352
0.103849540103
0.100459984053
0.0982531772271
0.096960474276
0.0964147994614
0.0965049347356
0.0971451557962
0.0982676015189
0.0998189987676
0.101757039376
0.104049193185
0.106656937244
0.109546784792
0.112689824216
0.116062101765
0.119646194228
0.123419949447
0.127361922027
0.131449109448
0.135658489428
0.139970206726
0.144380056717
0.148944700135
0.153971420028
0.161081071291
0.215682976547
0.202874199054
0.189723313579
0.174649691813
0.148308697369
0.130536493049
0.120268351911
0.114451725921
0.112563916635
0.11217723588
0.111093443638
0.109821631699
0.108954349347
0.108572765747
0.108620111634
0.109065053432
0.109889695521
0.111072414309
0.112589021296
0.114416178864
0.116532143936
0.118918516016
0.121556644918
0.124427460082
0.127511650693
0.130787178167
0.134223353539
0.137815245762
0.141557006929
0.145437445762
0.149452767137
0.153614276962
0.15796922881
0.16265722214
0.168026161696
0.175301818003
0.22878773029
0.216256503793
0.20412825836
0.189261135726
0.161711981879
0.142336458026
0.129914582982
0.122012598062
0.117353970047
0.115431956668
0.115497208316
0.11716471554
0.120098689293
0.12338617857
0.125727815167
0.127273471365
0.128589385081
0.129893824274
0.13122321517
0.132604576198
0.134069140036
0.13563783824
0.137322164629
0.139129071483
0.141063142505
0.143127347667
0.145323266124
0.147651316273
0.150111029759
0.152701580282
0.155423421705
0.158267656396
0.161250774431
0.164375813446
0.16765465235
0.17111784888
0.174835690862
0.178963316318
0.183787877701
0.1900796448
0.240664841555
0.228197043049
0.216874988189
0.202069299137
0.173455050195
0.152904243699
0.139561222208
0.130742358676
0.124995300331
0.121686346978
0.120020947227
0.120018543385
0.121509666908
0.124088987831
0.127560759899
0.131722128612
0.136366918091
0.140969271748
0.144716140398
0.147561505609
0.149907464865
0.152000805115
0.153926533372
0.155736644044
0.157480075351
0.159193968275
0.160903439896
0.162626576056
0.164377557305
0.166167921762
0.168007323926
0.169904170953
0.171866173066
0.173900856066
0.17601595347
0.178224961047
0.180539745678
0.182976370201
0.185559779011
0.188333520031
0.191376840575
0.194834254508
0.198918238471
0.204098774327
0.252717599473
0.239966484665
0.229235663475
0.214397462781
0.184818832769
0.163217472129
0.14906819145
0.139517194706
0.133099266371
0.129188330696
0.126934312827
0.126241700815
0.126843938581
0.128289500671
0.130444162127
0.133342543182
0.13688260601
0.140899450435
0.145327145026
0.150066493752
0.154958612128
0.159659134437
0.163663785666
0.166867453922
0.169514550016
0.171815750687
0.173868573786
0.175731909381
0.177458030713
0.17908917047
0.180656198681
0.182182353681
0.183686302235
0.185183606236
0.186687626568
0.188210309844
0.189762909689
0.191356462374
0.193002736253
0.194722307655
0.196523270004
0.19842847855
0.20046990655
0.202696905048
0.205188248273
0.208068689115
0.211487090881
0.215740374791
0.270229369562
0.259538595537
0.254301199504
0.244838530495
0.228691414586
0.197196233115
0.174023370093
0.15882161945
0.148399397423
0.141263138631
0.136807257307
0.134118502577
0.133023929451
0.133236196635
0.134284516864
0.13597468587
0.138280383375
0.141055804259
0.144121958755
0.147474659276
0.151149523132
0.155089741922
0.159223321663
0.163527489421
0.167956998304
0.172395646071
0.176610694815
0.180286171481
0.183315083952
0.18582967388
0.187985428882
0.189873169168
0.191550765271
0.193067933112
0.194466290133
0.195777818554
0.197027240197
0.198234614915
0.199416828555
0.200588550932
0.201763072705
0.202953091441
0.204170961226
0.205431671937
0.206753713721
0.208146683992
0.209636040034
0.211256456527
0.213058078594
0.215113930569
0.217527423687
0.220398930214
0.22392929848
0.284854470853
0.274408909734
0.270069522141
0.261205197942
0.24508086119
0.21271584815
0.188684542651
0.172680313979
0.160882879524
0.152204726354
0.146047658443
0.142156831333
0.139778837276
0.138831017237
0.139087319794
0.140111868921
0.14170376545
0.143838190001
0.146377088328
0.149136882086
0.15208006943
0.155212401715
0.158461446913
0.161758660416
0.165129206481
0.168613507845
0.172191932286
0.175834933905
0.179537854804
0.183278720342
0.186974653704
0.190465523085
0.193548761227
0.196134493692
0.198287256912
0.200112317156
0.201684618904
0.20305559212
0.204268889025
0.205361982311
0.206364920643
0.207301621308
0.208191814952
0.209052353647
0.209898099272
0.210742710368
0.211599348819
0.21248092714
0.21340599835
0.214383814968
0.215430660229
0.216572674561
0.217844745644
0.219294841724
0.220987825386
0.223007433875
0.225419279718
0.228370271504
0.299231740091
0.289512653002
0.285803891813
0.277313797579
0.261004230743
0.227616012552
0.202447755996
0.185582794302
0.173007592869
0.163517281123
0.156497371252
0.151665982026
0.14815482579
0.145853971619
0.144897302015
0.145119169538
0.146089837998
0.14761161184
0.149651890749
0.152072513623
0.154688741706
0.157441924689
0.160330170171
0.163279811837
0.166214188935
0.169135071071
0.172061759793
0.174966710638
0.177828468338
0.180676859483
0.183550331727
0.186450861973
0.189368271153
0.19230218776
0.195237222987
0.198113488203
0.200820214121
0.203224851425
0.20525790817
0.206946682338
0.208358130056
0.209549229833
0.210562594218
0.211434681343
0.212197469769
0.212877568966
0.213496790014
0.214073466092
0.214623504167
0.215161153316
0.215699689447
0.216251804841
0.216830881411
0.217453559617
0.218126497187
0.218870579899
0.219711186258
0.220681611236
0.221825770159
0.22319952613
0.224869692045
0.22687800745
0.229339091447
0.313857282004
0.304691422103
0.301471547569
0.293276256263
0.276793529309
0.242508123815
0.216333468341
0.19870350797
0.185440889013
0.175256941663
0.167577059066
0.162167465969
0.158145002148
0.155330780406
0.153800939988
0.153354734487
0.153529357281
0.154135292907
0.155228732047
0.156872118536
0.158946790236
0.161259584463
0.163738829195
0.166362163195
0.169045949251
0.171705113869
0.174324043746
0.176910844133
0.179433422007
0.181862583234
0.184211902062
0.186504946893
0.188739155445
0.190913769268
0.193054250743
0.195191684804
0.197335964699
0.199485491665
0.201639122339
0.203783206698
0.205873441928
0.207832647845
0.209572327501
0.211040527963
0.212245348906
0.213227243429
0.214027075272
0.214678359083
0.215210453965
0.215649660799
0.216018591
0.216336320919
0.216619216114
0.216881720279
0.217136985751
0.217397428006
0.217674797422
0.21798370997
0.218331131608
0.218732664546
0.21920763691
0.219779962276
0.220480295681
0.221347550734
0.222428730852
0.223776642715
0.225417208502
0.227443537413
0.329975590378
0.321027180966
0.318042183925
0.309926629059
0.293096554577
0.257838726826
0.230625306974
0.212238666613
0.198311836441
0.187463869299
0.179160988609
0.173228877875
0.168776554556
0.165568507288
0.163648856098
0.162823347495
0.162641092947
0.162882434371
0.163576428565
0.164760002167
0.166298716497
0.167990324014
0.169794729115
0.171757702878
0.173892982487
0.176128667551
0.178380627116
0.180624595395
0.182852698877
0.185022967461
0.187097952477
0.189078306058
0.190977084636
0.192786240048
0.194497906274
0.196126254371
0.197692190357
0.199203672311
0.200667625931
0.202103919526
0.203535579762
0.204973685338
0.206418995353
0.207868660819
0.209309582582
0.210707892082
0.21200917279
0.213153138998
0.214101512988
0.214853312987
0.215431883712
0.215865341662
0.216179066579
0.21639609385
0.216537540701
0.216622114025
0.216666046432
0.21668356502
0.216687447066
0.216689503286
0.216700855893
0.216732538033
0.216795448462
0.216898347068
0.217057393129
0.217290429694
0.21761943928
0.218071851978
0.218681292861
0.219486631088
0.220529409673
0.221825501225
0.223451972385
0.349177934989
0.341338594263
0.34137949739
0.340544447446
0.331596361725
0.312638907511
0.275049377397
0.245998930361
0.226506058847
0.211700729312
0.200025144515
0.19099689495
0.184520625939
0.179668922886
0.176122914961
0.173884915764
0.172765204647
0.172326209861
0.172323605588
0.172769699859
0.173691472027
0.174958509309
0.17637343967
0.177877340985
0.179502218459
0.18125164459
0.18305099705
0.184820658335
0.18656118765
0.188305969145
0.190057763134
0.191778268559
0.193431893304
0.195015262382
0.196531984133
0.197967075495
0.199306003267
0.200553790286
0.20172280863
0.202815392417
0.203832512021
0.204786131085
0.205692684251
0.206562672064
0.207404914166
0.208233899596
0.209065467518
0.209908187535
0.210762604555
0.211624194316
0.212480276168
0.213304529661
0.214058053116
0.214699122086
0.215199724967
0.21555525234
0.215778610809
0.21588863537
0.215904079005
0.215842723896
0.215721296463
0.215555036384
0.215357529534
0.215140942802
0.214916394282
0.214694292431
0.214484336623
0.214297512995
0.214138099381
0.21402162745
0.213961741937
0.213974354721
0.214078968051
0.214299408109
0.214664086678
0.215204713471
0.215953953473
0.216921628024
0.218171792582
0.368466677734
0.360789776587
0.361160726532
0.360727915543
0.351966737089
0.332749837673
0.294374685001
0.264625256381
0.244930739348
0.229954758058
0.21748194192
0.207170195962
0.198987987419
0.19306066779
0.188563932734
0.185242944826
0.183132417491
0.182072534256
0.181652323456
0.18162671175
0.18200952037
0.182830920368
0.183971894525
0.185246999971
0.186588881855
0.188026364946
0.189563811085
0.191133114734
0.192658152922
0.194131903656
0.195580908944
0.197005030822
0.198368500957
0.199643071339
0.200841056407
0.201988604109
0.20309040019
0.204129367748
0.20509108373
0.205978166096
0.206797564184
0.207546873242
0.208222279169
0.208829292993
0.209377930755
0.209873664912
0.210320601557
0.210727867839
0.211107391975
0.2114683612
0.21181853287
0.21216771155
0.212525877421
0.212898320022
0.213284358191
0.213678445684
0.214068791932
0.214434817823
0.214748436086
0.214980487541
0.215110610422
0.215133363352
0.215055628505
0.214889887284
0.214649841994
0.214349125671
0.214000921009
0.213617559749
0.213210316259
0.212789499251
0.212364678301
0.211944810514
0.211538530273
0.211152655742
0.210797201349
0.210483879178
0.210224774124
0.210034040802
0.209928679749
0.209928989484
0.210058591092
0.210343118596
0.210808339635
0.211460675113
0.212353140597
0.388785386498
0.3818393575
0.383656310563
0.386985408877
0.386866710798
0.376901475648
0.35547269233
0.314793009167
0.283109815218
0.262349430198
0.246590312247
0.233342990429
0.222200441701
0.213222915066
0.20662117064
0.201462637968
0.197310634543
0.194162870644
0.192163801672
0.19118122831
0.19081295101
0.190815930115
0.191203337769
0.192003242158
0.193098848171
0.194310762551
0.195566380517
0.196892286391
0.198294960594
0.199713007616
0.201075996838
0.202373358574
0.203629137521
0.204844640653
0.205988561236
0.207034775208
0.207991957385
0.20888228591
0.209709690852
0.210460120382
0.211125349028
0.211716945043
0.212253335132
0.212740252119
0.213171465458
0.213541745244
0.213854379647
0.214115837172
0.214328063854
0.214491612011
0.214611036708
0.214693516918
0.214744260543
0.214767508494
0.214769702497
0.214758844916
0.214741716098
0.214724018837
0.214711910662
0.214711053343
0.214723948203
0.214748778342
0.214779704757
0.214806309204
0.214812603054
0.214778254216
0.214682812622
0.214511649358
0.214259798467
0.213930873176
0.213533202838
0.213076812709
0.212572166306
0.212029665512
0.211459278296
0.210870327569
0.210271503835
0.20967098423
0.209076384264
0.208495830024
0.20793304796
0.207400895752
0.206908602218
0.206466511012
0.206086803748
0.205783929658
0.205574860637
0.205478980735
0.205516903715
0.205709096443
0.206060257558
0.206613930897
0.408022020547
0.401324386939
0.403574666188
0.407474593643
0.407943842459
0.398340286735
0.376821684603
0.33567362507
0.303359297569
0.282447209384
0.266856847046
0.253717729845
0.242007786959
0.231838650105
0.223486823193
0.217295772048
0.212408488818
0.208421821147
0.205338352199
0.203296281141
0.202160632574
0.201517591725
0.201100907969
0.200932542283
0.201144542309
0.2017928549
0.202756530047
0.203848821743
0.204988853422
0.20619541105
0.207470271907
0.208752562763
0.209973849318
0.211120666754
0.212214641444
0.213258585944
0.21422559086
0.215092639248
0.21586683081
0.216568186052
0.217201406519
0.217754891298
0.218221301315
0.218610101502
0.218936804105
0.219206653393
0.21941552439
0.219562237476
0.219655050727
0.21970572044
0.219719206721
0.219693978992
0.219628435676
0.21952500614
0.219388121208
0.219220265321
0.219022963972
0.218799438181
0.218554311561
0.218291478165
0.21801427341
0.217726993952
0.217434726687
0.217141996364
0.216852550401
0.216569955201
0.216297021688
0.216034353179
0.215779486164
0.215526900063
0.215267829981
0.214990040985
0.214678880489
0.214320042213
0.213903181086
0.213424303743
0.212885368318
0.21229206964
0.211651823712
0.210972712484
0.210262979638
0.209530694566
0.208783553714
0.208028851388
0.207273474969
0.206524054546
0.20578560576
0.205067101907
0.204376357148
0.2037213454
0.203111045651
0.20255586465
0.202067939321
0.201661301925
0.201351734391
0.201155794286
0.201089895729
0.201158001312
0.201395598795
0.428903730322
0.421952245537
0.424287816791
0.428456755626
0.429204443636
0.419620207563
0.397646210893
0.355794704703
0.322478889074
0.301011411327
0.285027695638
0.271483653486
0.259261488997
0.248458065556
0.239468432705
0.232748172503
0.227417394143
0.222916544892
0.21910260368
0.21611913595
0.214145834405
0.213054565474
0.212434603001
0.21201437893
0.211810029297
0.211944272566
0.21245881532
0.213220935911
0.214033162222
0.214814439626
0.215613732826
0.216501357017
0.217490610582
0.218520703938
0.219518898992
0.22046323142
0.221367661016
0.222229640895
0.223021243853
0.223718965708
0.224327204929
0.224863092458
0.225331486403
0.225722928099
0.22603125295
0.226264657829
0.226436515057
0.22655178767
0.226607174041
0.226601470032
0.22654131004
0.226436274637
0.226290770366
0.226104474471
0.225878211396
0.225617104697
0.225327986884
0.22501420862
0.224675691652
0.224311964751
0.223924430777
0.223515667106
0.223087527517
0.222641355041
0.22217926408
0.221704087084
0.221218464563
0.220724758619
0.220225760857
0.219724617941
0.219224178871
0.21872672931
0.218234161237
0.217747592158
0.21726655357
0.21678842283
0.216308366809
0.215819315829
0.215312074002
0.214776165781
0.214201644194
0.213581316288
0.212912230425
0.212195566019
0.211435360955
0.21063719247
0.209807358157
0.20895242648
0.208078943616
0.207193254164
0.206301448473
0.205409281584
0.20452265925
0.203645723883
0.202787159131
0.2019531132
0.201150281592
0.200386264704
0.199669798559
0.199010956297
0.198421243491
0.197913456961
0.197500930827
0.197196985769
0.197005380787
0.196954890619
0.453384924013
0.445866455683
0.448460910294
0.453899738905
0.458654363428
0.458806519832
0.447316537171
0.422369111795
0.377830689269
0.342230865309
0.319667423288
0.303042857928
0.288907666944
0.275967023391
0.264315282876
0.254541459483
0.247273718145
0.241624543558
0.236920853655
0.2329299153
0.229748357581
0.227541324623
0.226193504333
0.225293341488
0.224534545738
0.223885094133
0.223470394946
0.223437955982
0.223820100346
0.224468704166
0.225174442822
0.225844817933
0.226519055432
0.227257659716
0.228064603915
0.228874090284
0.2296125057
0.230265110491
0.230868640802
0.231456709306
0.232030806202
0.232564872687
0.233034514996
0.233439126906
0.233789944602
0.234087786881
0.234321604111
0.234483829881
0.234580020877
0.234620478281
0.234609216845
0.234543337552
0.234421564518
0.234249225897
0.234033897489
0.233779160282
0.233484592879
0.233150579543
0.232781019524
0.232381280713
0.231954277062
0.23150064833
0.231021409673
0.230519488479
0.229998610159
0.229460777417
0.228906214476
0.22833481225
0.227747342919
0.227145229831
0.226529698982
0.225901754919
0.225262791295
0.22461457311
0.223958857235
0.22329727655
0.222631654428
0.221963937661
0.221295869682
0.220628767261
0.219963520581
0.219300322361
0.21863821071
0.217974715321
0.217305812661
0.216625972849
0.215928382488
0.21520560454
0.214450765264
0.213658942973
0.212828097538
0.211959072147
0.211054855993
0.210119727835
0.209158647254
0.208176880649
0.207179752074
0.206172481768
0.205160097763
0.20414746355
0.203138855195
0.202140438568
0.201157537157
0.200195488447
0.199260083447
0.198357776205
0.197495866409
0.196682662599
0.195927553704
0.195240906021
0.194633515908
0.194116334179
0.193693166663
0.193387345327
0.496170648915
0.485355775775
0.486349379716
0.491231073081
0.496539072079
0.500218351147
0.498256054083
0.482855340915
0.45254369312
0.403454708445
0.364209783566
0.340233032368
0.323325385313
0.309423601441
0.296697992311
0.28443754623
0.273025590359
0.263381596587
0.256381719144
0.251119784717
0.246834473715
0.243222539767
0.240348368469
0.238382376445
0.237250054781
0.236572975098
0.236042869503
0.235600931469
0.235347286734
0.23540963831
0.235812544722
0.236414286529
0.237011476708
0.23750905463
0.237940476118
0.238388598853
0.238920537332
0.239537220342
0.240170519126
0.240745607096
0.241243657612
0.241692457757
0.242116843116
0.242512209331
0.242850936568
0.243111636881
0.243300560857
0.243441836087
0.243552533754
0.243632403445
0.243670804723
0.243660155649
0.243603448273
0.243507186737
0.243372277093
0.243194063872
0.242969677984
0.242702324153
0.242397072887
0.242056223837
0.241678944376
0.241265127423
0.240817669253
0.240340479121
0.239835699686
0.239303615053
0.238744834509
0.238161567346
0.237556734669
0.236932166792
0.23628861494
0.235626954425
0.23494890462
0.234256526929
0.23355102963
0.232832703523
0.232101617059
0.23135826735
0.230603509282
0.229838183816
0.229063056637
0.228279105709
0.227487499035
0.226689435862
0.225886054216
0.225078564516
0.224268176325
0.223455930615
0.222642523879
0.221828259725
0.221012851107
0.220195165023
0.219373009132
0.21854312106
0.217701245179
0.216842374108
0.215961252025
0.215053162256
0.214114806178
0.213144885089
0.212144132791
0.211114877703
0.210060483782
0.208984908053
0.207892402767
0.206787309349
0.205673911442
0.204556326409
0.203438535794
0.202324357388
0.201219128349
0.20012718651
0.199053045009
0.198001584022
0.19697818387
0.195988870865
0.195040448075
0.194140556531
0.193297615326
0.192520445606
0.191818182835
0.191194767939
0.190669283019
0.595482173774
0.58101876992
0.583030015268
0.5890420609
0.593142138075
0.588240384792
0.562325386272
0.515946101304
0.449876437554
0.394024475031
0.362054466269
0.341116311675
0.325071065389
0.311287383701
0.298465884792
0.286136598798
0.274878068963
0.265683451772
0.259436652772
0.254953835332
0.251377119784
0.248298031633
0.245694745239
0.243773306903
0.242747348743
0.242522674693
0.242675894163
0.242867684208
0.243046904717
0.243332891462
0.243863830676
0.24466738248
0.245607180288
0.246487036895
0.247218531955
0.247837121765
0.248427415571
0.249054208712
0.249715720304
0.250344242102
0.250868085397
0.251273274484
0.251597306627
0.251886927816
0.252170117167
0.252442053003
0.252674241495
0.25284332687
0.252951916567
0.253018512512
0.25305443327
0.253055109644
0.253008153655
0.252907247672
0.252759284162
0.252577620224
0.252370366271
0.25213659624
0.251871016596
0.251570528038
0.251236997013
0.250873456915
0.250480296695
0.250055388993
0.249597504688
0.249108331466
0.248590323821
0.248044796757
0.247471658784
0.246871183787
0.246245095268
0.245595579624
0.244924042927
0.244231025844
0.243517216993
0.24278406708
0.242033371178
0.241266409111
0.240483927183
0.239686697781
0.238875869758
0.238052723394
0.237218085154
0.236372287173
0.235515523372
0.234648209734
0.233770967307
0.232884449673
0.231989291413
0.231086248202
0.230176167988
0.229259922231
0.228338332854
0.22741223054
0.226482383927
0.225549404863
0.224613616472
0.223674999798
0.222733051483
0.221786639375
0.220833878756
0.21987214833
0.218898176464
0.217908262187
0.216898657227
0.215866101632
0.214808395275
0.213724769369
0.212615918485
0.211483728199
0.210330900968
0.209160634712
0.207976390713
0.206781728649
0.205580187808
0.204375202882
0.203170190602
0.20196874381
0.2007746987
0.199591752786
0.198423705043
0.197274616486
0.196148927845
0.195051581611
0.193988128969
0.192964787377
0.191988418128
0.191066279858
0.190206054637
0.189411692989
0.188698966209
0.655583939079
0.638062218764
0.639208641569
0.643639346166
0.641295984425
0.619474567537
0.575571540406
0.501925856219
0.443192428808
0.40701747717
0.381425699503
0.360395744412
0.341055860442
0.322218821179
0.304603173521
0.289956547591
0.279559754354
0.272108692906
0.2663273744
0.261426278876
0.257110650598
0.253426649694
0.25063181594
0.24896169029
0.248285894506
0.248094744633
0.247964712665
0.247792738124
0.24767514764
0.247791091955
0.248298213917
0.249201213881
0.250310349689
0.251378754599
0.252297548671
0.253103958039
0.253893150057
0.254734978588
0.255622376259
0.256476148308
0.257214947123
0.257821983081
0.258333664931
0.258798014133
0.259242200156