/*--------------------------------*- C++ -*----------------------------------*\
| =========                 |                                                 |
| \\      /  F ield         | OpenFOAM: The Open Source CFD Toolbox           |
|  \\    /   O peration     | Version:  2.3.1                                 |
|   \\  /    A nd           | Web:      www.OpenFOAM.org                      |
|    \\/     M anipulation  |                                                 |
\*---------------------------------------------------------------------------*/
FoamFile
{
    version     2.0;
    format      ascii;
    class       volScalarField;
    location    "500";
    object      nut;
}
// * * * * * * * * * * * * * * * * * * * * * * * * * * * * * * * * * * * * * //

dimensions      [0 2 -1 0 0 0 0];

internalField   nonuniform List<scalar> 
10011
(
3.09416051864e-05
3.71955017766e-05
4.09540777281e-05
4.31631958758e-05
4.44176895591e-05
4.50825934186e-05
4.5384802834e-05
4.54668032049e-05
4.54182036408e-05
4.52951355998e-05
4.51324128685e-05
4.49510381707e-05
4.47625737568e-05
4.45707065967e-05
4.43426342111e-05
4.40197299341e-05
4.34759902273e-05
4.03443038579e-05
0.000116754771435
6.95282568763e-05
5.17754478762e-05
4.25859185112e-05
3.73224725585e-05
3.40857812723e-05
3.19888273352e-05
3.058402184e-05
2.96269944329e-05
2.89746324246e-05
2.85380727073e-05
2.82593980606e-05
2.81000569089e-05
2.80451851242e-05
2.8026505047e-05
2.79440606761e-05
2.77007222532e-05
2.68313761591e-05
0.0003656661925
0.000224200379041
0.000163715082076
0.000129433442818
0.000107811697003
9.32803785263e-05
8.30253613176e-05
7.55191804751e-05
6.98832702999e-05
6.55868397087e-05
6.23015528769e-05
5.98298030575e-05
5.81907416246e-05
5.71306605263e-05
5.64901472109e-05
5.63930487956e-05
5.71805205649e-05
5.94604814068e-05
0.000645082455037
0.000480387610482
0.000380890820483
0.000316549552549
0.000272406059579
0.000240852201432
0.000217556416677
0.000199932495627
0.000186382314273
0.000175897539842
0.000167911809384
0.000162165091028
0.000157764246911
0.00015464901324
0.000152899936972
0.000152843798118
0.000155153175416
0.00016069975017
0.000789525805968
0.000697852433665
0.000614162615495
0.000545746620856
0.000491412736457
0.000448488173961
0.000414442536311
0.000387278114336
0.000365536987993
0.000348337758208
0.000334735506516
0.00032384803487
0.000315359937124
0.000309162794523
0.000305364782751
0.000304326965451
0.000306620615986
0.000312511744276
0.000836249289327
0.000802606938698
0.000760357053723
0.000716644460092
0.000675400298018
0.00063834246898
0.000605931796846
0.000578052061602
0.000554530859568
0.000534605309567
0.00051782204597
0.000503897265398
0.000492666321155
0.000484104883624
0.000478345699331
0.000475669298788
0.000476361545692
0.000480132489636
0.000848398074758
0.000838762291643
0.000823567116925
0.000804445351626
0.000783253496774
0.000761546288722
0.000740451600304
0.000720721269634
0.000702521687135
0.000686071216735
0.000671478151598
0.000658819201929
0.000648182715484
0.000639699565166
0.000633556016926
0.000629965289346
0.000629014237115
0.000630208540156
0.000850844964702
0.000847645222104
0.000841997825457
0.000833973103388
0.000824050870232
0.000812883874948
0.000801117721665
0.000789230449841
0.000777625784408
0.000766626890811
0.000756492932142
0.000747445988585
0.000739695395822
0.000733454482019
0.000728940349995
0.000726336408283
0.000725657806992
0.000726421257624
0.000851474395319
0.00085028432539
0.000848210660961
0.000845067926499
0.000840866421304
0.00083576625101
0.000829979174877
0.00082376092164
0.000817367552946
0.000811043516248
0.000805018580504
0.000799511533909
0.000794735673559
0.000790900443669
0.000788200762447
0.00078677878497
0.000786617047649
0.0007872952665
0.000851636481926
0.000851062999843
0.000850274190921
0.000849156015952
0.000847646006049
0.000845732569232
0.000843453864866
0.000840887024128
0.0008381373377
0.000835329309956
0.000832600658639
0.000830098704349
0.000827976944943
0.000826388359921
0.000825470138081
0.000825310320676
0.000825869683437
0.000826805844941
0.000851668150805
0.000851240759098
0.0008508075716
0.000850330389175
0.000849778102083
0.000849133227334
0.000848394043542
0.000847576597582
0.000846715009904
0.000845860199846
0.000845077967521
0.000844446457139
0.000844051991375
0.000843981544663
0.000844309320663
0.000845072368032
0.000846217682035
0.000847475757734
0.000851671713359
0.000851266524751
0.000850901482448
0.00085056969555
0.000850265345161
0.000849986270991
0.000849734699308
0.000849518982456
0.000849355221285
0.000849267949762
0.000849289910219
0.000849460739447
0.000849823937097
0.000850421288214
0.000851283770326
0.000852416372005
0.000853764669573
0.000855124032259
0.000851671967676
0.000851264976269
0.000850901888814
0.000850584206142
0.000850314114704
0.0008500960241
0.000849936552871
0.000849845059778
0.000849834395406
0.000849921219708
0.000850125683969
0.000850470305758
0.000850977718485
0.000851666993677
0.000852548283656
0.000853614355499
0.000854820390771
0.000856018815048
0.000851673461062
0.000851262498084
0.000850891323078
0.000850562915344
0.000850280678938
0.000850049644843
0.000849876497064
0.000849769659881
0.000849739478845
0.000849798138573
0.000849959145338
0.000850236293756
0.000850642029865
0.000851185183051
0.000851868068301
0.000852682040952
0.000853595591072
0.0008545075185
0.000851676470146
0.0008512627501
0.000850883987693
0.000850542969174
0.000850242695876
0.000849987242474
0.000849781868612
0.000849632997441
0.00084954816656
0.00084953579961
0.000849604701955
0.000849763260965
0.000850018367965
0.000850374123703
0.00085083037454
0.000851380453391
0.000852004427775
0.000852635376375
0.000851680380486
0.000851265198253
0.000850880686088
0.000850528972565
0.000850212346136
0.000849933799704
0.000849697141913
0.000849506946444
0.000849368426106
0.000849287186979
0.000849268826762
0.000849318386379
0.000849439696642
0.000849634682816
0.000849902663071
0.000850239246427
0.000850632905735
0.00085104065763
0.00085168421658
0.000851268396513
0.000850879780089
0.000850519713665
0.000850189746824
0.000849891959444
0.000849629029861
0.000849404167434
0.000849220970789
0.000849083208314
0.000848994517193
0.000848958040047
0.000848976035848
0.000849049506707
0.000849177867361
0.000849358462144
0.000849585356433
0.000849831859353
0.000851686754982
0.00085127046303
0.000850878886855
0.000850512694623
0.000850172847995
0.000849860793997
0.000849578474899
0.000849328245059
0.000849112733682
0.000848934654557
0.000848796572376
0.000848700647964
0.000848648389042
0.000848640430626
0.000848676372394
0.000848754623121
0.000848872586244
0.000849013721351
0.000851687581941
0.000851270595834
0.000850876674112
0.000850506014254
0.000850159240411
0.000849837465191
0.000849542224564
0.000849275385225
0.000849039016094
0.000848835214457
0.000848665909654
0.000848532668848
0.000848436522152
0.000848377820219
0.000848356155562
0.000848370387326
0.000848419670511
0.000848493299884
0.000851687331667
0.000851269473908
0.000850873440021
0.000850499097961
0.000850146897265
0.000849817700524
0.000849512639676
0.000849233044673
0.000848980330479
0.000848755838461
0.000848560679367
0.000848395596872
0.00084826085554
0.000848156158711
0.000848080630844
0.000848032958557
0.000848012970834
0.000848013450125
0.000851686660598
0.000851267743636
0.000850868988762
0.000850489466568
0.000850128686386
0.000849786050506
0.000849460777532
0.000849152006712
0.0008488587998
0.000848580095042
0.000848314682114
0.000848061189727
0.00084781807432
0.000847583614167
0.000847355948575
0.000847133297894
0.000846916006015
0.000846700995662
0.000851685555702
0.000851262747838
0.000850851680427
0.000850444870856
0.000850033763835
0.000849608531101
0.00084915912595
0.000848676266209
0.000848151937316
0.000847579657837
0.000846954609388
0.000846273624356
0.000845535063648
0.000844738634996
0.000843885224195
0.000842976939891
0.000842019623263
0.000841023778595
0.000851677199531
0.000851213873219
0.000850692319577
0.000850064318686
0.000849283090812
0.000848308259556
0.00084711028392
0.000845671724517
0.000843986348385
0.00084205744296
0.000839895848615
0.000837517959729
0.000834943910033
0.000832196051544
0.000829297779315
0.000826272920251
0.000823149040453
0.000819974657776
0.000851582946009
0.000850738719052
0.000849360009625
0.000847270116034
0.000844369171465
0.000840633250447
0.000836100764638
0.000830851190958
0.000824985971561
0.000818614575896
0.000811845101556
0.000804778505882
0.000797505589576
0.000790105852918
0.000782647536104
0.000775188624209
0.000767783261212
0.000760526393467
0.000850710138327
0.000847076445633
0.000840664353408
0.000831513232188
0.000820018700623
0.000806734329214
0.00079222608541
0.000776989650884
0.000761424002224
0.000745833542329
0.000730440922206
0.00071540277584
0.000700824780106
0.000686774469082
0.000673291455066
0.000660395456487
0.000648097333555
0.000636465285718
0.00084408039858
0.000824958507249
0.000797753194337
0.000766156277358
0.000733015919328
0.000700222342285
0.000668859178035
0.000639451221648
0.000612188115314
0.000587072775166
0.0005640100614
0.000542858631276
0.000523460613629
0.000505657928466
0.000489300784557
0.000474251763784
0.000460390175722
0.000447662536836
0.000803305059053
0.000726472361537
0.000651173994053
0.000585181408248
0.000529210536376
0.000482213416698
0.000442708364007
0.000409298823051
0.000380826554577
0.000356368198188
0.000335194434843
0.00031672919758
0.000300515835292
0.000286190450689
0.00027346147365
0.000262094286752
0.000251900025157
0.000242750459835
0.000625686567269
0.000465055966717
0.000368475104985
0.000303982702191
0.00025809177405
0.000224130736301
0.000198186775517
0.000177839331451
0.000161535274462
0.000148236735936
0.000137224908677
0.000127987628153
0.000120151441373
0.000113438703813
0.000107639709575
0.000102594468224
9.81810879391e-05
9.43197951427e-05
0.000254158414496
0.000158184522102
0.000117769408354
9.43787880694e-05
7.93398048569e-05
6.91094884883e-05
6.18472149641e-05
5.65209624721e-05
5.2515489668e-05
4.94432415603e-05
4.70492012129e-05
4.51597269441e-05
4.36532207376e-05
4.2442479116e-05
4.14636829063e-05
4.06693708539e-05
4.00238963972e-05
3.95049106704e-05
3.69332019522e-05
4.20247677421e-05
4.57590811073e-05
4.86608502412e-05
5.10541912343e-05
5.29994002865e-05
5.45557560161e-05
5.57801447509e-05
5.67250542919e-05
5.74372134109e-05
5.7957180972e-05
5.83195527299e-05
5.8553473761e-05
5.86832771466e-05
5.87291534868e-05
5.87077852793e-05
5.86331157947e-05
5.85149401128e-05
2.37372489468e-05
5.3071782995e-05
4.0044796423e-05
4.30181815307e-05
4.24332094873e-05
4.21285142615e-05
4.19626812034e-05
4.1876788232e-05
4.18393040414e-05
4.18310946128e-05
4.18406371448e-05
4.18609536994e-05
4.18876381343e-05
4.19177584976e-05
4.19481349297e-05
4.1978631791e-05
4.2009550689e-05
4.20411289905e-05
4.20734789894e-05
4.21065341175e-05
4.21399430772e-05
4.21729513802e-05
4.22042449525e-05
4.22316929431e-05
4.22518543315e-05
4.22591640369e-05
4.22433363383e-05
4.21920731715e-05
4.19918131884e-05
2.44034882307e-05
4.28297392062e-05
5.41771914609e-05
5.14464249812e-05
5.35099625406e-05
5.49751433929e-05
5.60800441607e-05
5.70151540396e-05
5.79977321606e-05
5.90291541545e-05
6.01000518071e-05
6.12223715458e-05
6.24121930717e-05
6.36837183841e-05
6.50496556628e-05
6.65211908064e-05
6.81070047252e-05
6.97839691933e-05
7.15556945978e-05
7.34260663504e-05
7.5394020971e-05
7.74583818092e-05
7.96270978495e-05
8.18818921623e-05
8.42016797736e-05
8.65599153338e-05
8.89217497757e-05
9.12393650839e-05
9.344338563e-05
9.54175637064e-05
9.69285790003e-05
9.72140952805e-05
2.46681094295e-05
4.18015484175e-05
4.90546465753e-05
5.83033041514e-05
5.49351041867e-05
5.57102113442e-05
5.88657215217e-05
6.3319386651e-05
6.88556965498e-05
7.40573119094e-05
7.8188631652e-05
8.18531983928e-05
8.54772792102e-05
8.91477919969e-05
9.28769389102e-05
9.66820929172e-05
0.000100574686597
0.000104554985993
0.000108616528522
0.000112749772003
0.000116943386045
0.000121183304324
0.000125454501547
0.000129741639575
0.000134029014689
0.000138290549944
0.000142466698112
0.000146574386764
0.000150612078159
0.000154552703455
0.000158360412898
0.000161984156068
0.00016534538078
0.000168303638019
0.000170513138884
0.000171174427511
2.54447925601e-05
4.32227884791e-05
5.08760265471e-05
6.03610801796e-05
5.66564120729e-05
5.64011764871e-05
5.78632639219e-05
6.1357398824e-05
6.63887983454e-05
7.27336380462e-05
8.00343105216e-05
8.8067223582e-05
9.63739762715e-05
0.000104173107719
0.000110846453181
0.000116724145538
0.000122259623741
0.000127630379884
0.000132895642679
0.000138103986505
0.000143296916262
0.000148501609859
0.00015373417813
0.000159004000303
0.000164315570772
0.000169669135913
0.0001750611613
0.000180484765595
0.000185930094768
0.000191384018166
0.000196828388326
0.000202219330536
0.000207564837042
0.000212835270132
0.000217995251648
0.000223000608555
0.000227791063052
0.000232266528525
0.000236171373604
0.000239070711761
2.61711989989e-05
4.45602252758e-05
5.26395302199e-05
6.25406471364e-05
5.88886044244e-05
5.85368117093e-05
5.98242585423e-05
6.29605616163e-05
6.73065811002e-05
7.25408150052e-05
7.84697607225e-05
8.55370074382e-05
9.38183259189e-05
0.000102934791585
0.000112583154377
0.000122476996483
0.000132280143917
0.000141486606209
0.000149630383021
0.000156839972868
0.000163483690302
0.000169777719355
0.000175817778614
0.000181672551276
0.000187401198523
0.000193048060996
0.000198644602044
0.000204214092424
0.000209774284102
0.000215338543191
0.000220916531869
0.000226514700417
0.000232136622251
0.000237783126306
0.000243452206487
0.000249142556351
0.000254848787054
0.000260557718813
0.000266252328208
0.000271912307272
0.000277512216175
0.000283009392527
0.000288265079722
0.000293128187103
2.69487416301e-05
4.59498493362e-05
5.44216232475e-05
6.47221240062e-05
6.11513400044e-05
6.07779956355e-05
6.20107661713e-05
6.50436533816e-05
6.92745235346e-05
7.43643083487e-05
8.00534374868e-05
8.66942499038e-05
9.42807008412e-05
0.000102450054481
0.000111128585775
0.00012045621956
0.000130399718173
0.000140749770451
0.000151290216045
0.000161813421727
0.00017207136658
0.000181721635986
0.000190436142944
0.000198238863988
0.000205386544576
0.000212081468993
0.00021843223675
0.000224514595841
0.000230393688986
0.000236121568682
0.000241737622093
0.000247272447373
0.000252750708071
0.000258192561326
0.000263614553624
0.000269030319775
0.000274451119139
0.000279886066415
0.000285343386806
0.000290846779888
0.000296385975176
0.000301964318411
0.000307584238353
0.000313249291434
0.000318964356324
0.00032472863319
0.000330477350595
0.000336205415847
2.75111868471e-05
4.64442239993e-05
5.2756121365e-05
5.84800194709e-05
6.80076897372e-05
6.41476121532e-05
6.3520052881e-05
6.45792920841e-05
6.74598361772e-05
7.15925874538e-05
7.66334668743e-05
8.22778562496e-05
8.88481007081e-05
9.63371695038e-05
0.000104364248652
0.000112792915242
0.000121715478336
0.000131079189591
0.00014071816112
0.000150609810172
0.000160796614732
0.000171225239094
0.000181781347488
0.000192324441938
0.000202721267169
0.000212791420135
0.000222294278893
0.000231000364627
0.000238887160046
0.000246117414633
0.000252855872766
0.000259207984116
0.000265249299437
0.000271044591067
0.000276647635042
0.000282100791341
0.000287437744982
0.000292686113581
0.000297868975748
0.000303005877169
0.000308113647643
0.000313207067905
0.000318299107045
0.00032340503198
0.000328557789265
0.000333743705985
0.000338975222744
0.000344266311872
0.000349634497417
0.000355100825983
0.000360683949244
0.000366351641162
0.000372162064737
2.8275490335e-05
4.78661231705e-05
5.45147629713e-05
6.04993401545e-05
7.02564617868e-05
6.63714486278e-05
6.53416420257e-05
6.54465299192e-05
6.67062807225e-05
6.97405830244e-05
7.4037495028e-05
7.92005314931e-05
8.49253973744e-05
9.15426173196e-05
9.90624369902e-05
0.000107111028705
0.00011551857226
0.000124374224376
0.00013362709923
0.000143101693034
0.000152735716525
0.000162552524308
0.000172507543407
0.000182533548294
0.000192629669919
0.000202817370062
0.000213055942549
0.000223276451204
0.000233387186091
0.000243296978002
0.000252871505258
0.000261934088057
0.000270320969193
0.000277993452795
0.000285049086425
0.000291612473392
0.000297777128153
0.000303613682272
0.000309183001496
0.00031453712275
0.000319718533037
0.000324761835194
0.000329695834254
0.000334544950186
0.000339330197187
0.000344070003008
0.000348780865402
0.000353478056427
0.000358188343748
0.00036293034674
0.000367697417107
0.000372506129818
0.000377375687724
0.000382329285469
0.000387393083721
0.000392590181604
0.000397897794551
0.000403399151145
2.90222987469e-05
4.93193086967e-05
5.63171264e-05
6.25971437831e-05
7.27109563826e-05
6.89140515165e-05
6.78663358631e-05
6.79079216376e-05
6.90258439558e-05
7.1764373089e-05
7.55353025551e-05
7.98239764156e-05
8.42539934611e-05
8.92864018508e-05
9.54425092519e-05
0.000102684736775
0.000110554978583
0.000118852492283
0.00012763644759
0.000136844576447
0.00014629400126
0.00015588464076
0.000165630712178
0.000175483415041
0.000185365372785
0.000195252442164
0.000205157410064
0.000215054929716
0.000224918432821
0.000234753602192
0.000244573462008
0.000254350593256
0.000264036771496
0.000273566840251
0.000282869281872
0.000291840880114
0.000300348859214
0.000308274060476
0.000315576408487
0.000322312749148
0.000328573977325
0.000334438926639
0.000339971294321
0.000345226860256
0.00035025451995
0.000355095504422
0.000359784223442
0.000364349780505
0.000368817169403
0.000373208159167
0.000377542042679
0.00038183611215
0.000386108315835
0.000390403225682
0.000394699380697
0.000399013415561
0.000403362913717
0.000407768348013
0.000412253552264
0.000416843676894
0.000421559094028
0.000426377096209
0.000431390237968
2.97685679711e-05
5.0768699811e-05
5.81147718014e-05
6.46878785336e-05
7.5171366633e-05
7.14878155943e-05
7.04782434001e-05
7.05226729696e-05
7.16070921753e-05
7.42590870484e-05
7.79208835189e-05
8.20909847454e-05
8.63477094455e-05
9.10999556111e-05
9.68057711918e-05
0.00010335832798
0.000110238837381
0.000117295643611
0.000124760134173
0.000132880053457
0.000141611787177
0.000150729173411
0.000160103756852
0.000169710718899
0.000179478382028
0.000189311726781
0.000199155797914
0.000209007369227
0.000218833074541
0.000228597551384
0.000238293109941
0.000247929791156
0.000257495253313
0.000266978986885
0.000276383975513
0.000285715595339
0.000294952158297
0.000304056920675
0.000312977781111
0.000321654054094
0.000330004122193
0.000337926405974
0.000345332953014
0.000352188094028
0.000358524797712
0.000364408785515
0.00036990498791
0.0003750698168
0.000379953900105
0.0003846026288
0.000389055380456
0.000393345807696
0.000397502846565
0.000401551663724
0.00040551441374
0.000409410870355
0.000413258915171
0.000417081706052
0.000420916984701
0.000424744288836
0.000428580377214
0.000432443191129
0.000436352916521
0.000440331793424
0.000444401463159
0.000448577270379
0.000452834339052
0.000457268477848
3.06007899671e-05
5.23488502525e-05
6.00366001546e-05
6.68885285088e-05
7.77410654299e-05
7.4153187963e-05
7.31887973322e-05
7.32516332154e-05
7.4329827305e-05
7.69432006858e-05
8.0570750508e-05
8.47308603885e-05
8.89610720889e-05
9.36549054738e-05
9.92627641083e-05
0.000105687548881
0.000112421304097
0.000119257775085
0.00012639367791
0.000134039838519
0.000142119286803
0.000150383582196
0.000158779655344
0.000167412533299
0.000176382472562
0.000185655586513
0.000195129745677
0.00020473406786
0.000214434071731
0.000224172369609
0.000233894809092
0.000243569003537
0.000253187617442
0.000262729601712
0.000272176038145
0.00028152235361
0.000290774020904
0.000299925070755
0.000308968487671
0.000317902852847
0.000326726277537
0.000335420451867
0.000343952507903
0.000352278014945
0.000360344403233
0.000368084736999
0.000375420715429
0.000382286707823
0.000388653663397
0.00039454126571
0.000399997751129
0.000405076435618
0.000409826998323
0.000414295344458
0.000418523504799
0.000422548846409
0.000426404008576
0.00043011750653
0.00043371443477
0.000437217074311
0.000440645325266
0.000444018970506
0.000447387018622
0.00045072494534
0.000454047730458
0.0004573712984
0.000460712655785
0.000464090241845
0.000467523286162
0.000471028903359
0.000474617156239
0.00047826147655
0.000482058466821
3.13125877628e-05
5.35607341185e-05
6.0686791048e-05
6.48742420475e-05
7.05588839606e-05
8.12043555744e-05
7.73860697493e-05
7.62625627281e-05
7.62467865373e-05
7.72659136116e-05
7.98207320216e-05
8.34286499862e-05
8.7619890312e-05
9.18834709205e-05
9.6597870043e-05
0.000102213459714
0.000108648379944
0.000115409184443
0.000122245613886
0.000129347538592
0.000136925135344
0.000144907149849
0.000153046346634
0.000161248597121
0.000169594750012
0.000178165797892
0.0001869165186
0.000195746795807
0.000204646349626
0.000213670490601
0.000222859170457
0.000232189640263
0.000241613166657
0.000251091845861
0.000260598578467
0.000270093484946
0.000279539973962
0.000288914245833
0.000298206013395
0.000307400639992
0.000316484131655
0.000325450776204
0.000334300937822
0.000343030091944
0.000351630952457
0.000360097383896
0.000368422034791
0.000376586550767
0.000384561008024
0.000392305962803
0.000399775500613
0.000406914678527
0.000413663179865
0.000419971948692
0.000425819095078
0.000431217501827
0.000436203855815
0.000440822431235
0.000445117084223
0.000449129555037
0.000452898805503
0.000456460196343
0.000459845208462
0.000463081746222
0.000466194624744
0.000469206019125
0.000472135917821
0.000475008702763
0.000477867702928
0.000480685492031
0.000483477995981
0.000486260734139
0.000489049756842
0.000491861581169
0.000494712341457
0.000497614956659
0.000500575192183
0.000503566336216
0.000506684663702
3.21784997895e-05
5.52389544586e-05
6.2714597452e-05
6.70936012836e-05
7.29816862174e-05
8.38972998096e-05
8.01455652564e-05
7.89261595122e-05
7.85752886925e-05
7.8762504185e-05
7.99193161456e-05
8.26568901934e-05
8.64662334089e-05
9.08406039617e-05
9.52424553138e-05
0.000100068456138
0.000105782611853
0.000112316428649
0.000119183263334
0.000126101554495
0.000133260080725
0.000140878265807
0.000148898966193
0.00015708529294
0.000165314843051
0.000173661038771
0.000182205525748
0.000190907346462
0.00019966129885
0.000208431996263
0.000217256782561
0.000226165514127
0.000235134832334
0.000244126631887
0.00025314605411
0.000262227215387
0.000271386702129
0.00028060911016
0.000289866214458
0.000299133193566
0.000308388698966
0.000317604349922
0.000326751700772
0.000335809846012
0.000344766793123
0.000353609873366
0.000362326724503
0.00037090906408
0.000379353625475
0.000387654410509
0.000395802939828
0.000403789518371
0.000411603510493
0.000419226372995
0.000426630820945
0.000433782427136
0.000440641870575
0.000447164762873
0.000453305359445
0.000459027725627
0.000464316662084
0.000469182149854
0.000473653439515
0.000477767941566
0.000481564539223
0.00048508123309
0.000488354102361
0.000491416451945
0.000494298410934
0.000497027025372
0.000499626560354
0.000502118786829
0.000504525189872
0.00050689955663
0.000509212166828
0.000511476736928
0.000513707916452
0.000515919999313
0.000518127275346
0.000520343786648
0.000522582422591
0.00052485234871
0.000527156093849
0.000529468232602
0.000531883688165
3.29253776725e-05
5.66845323347e-05
6.42469681949e-05
6.78867225916e-05
7.08980028103e-05
7.64067770576e-05
8.7369589064e-05
8.34293331706e-05
8.20688429046e-05
8.16491240751e-05
8.17772330665e-05
8.28345375149e-05
8.53925765663e-05
8.89246743606e-05
9.28524545708e-05
9.65217652562e-05
0.000100243227347
0.000104648037003
0.000110171456857
0.000116659767864
0.000123557509442
0.000130542920574
0.000137787737743
0.000145511377871
0.000153658650697
0.000161992615128
0.000170366952735
0.00017884729357
0.000187521301647
0.000196356903902
0.000205251498916
0.000214152295593
0.000223086705157
0.000232083215699
0.00024111905697
0.000250150127194
0.000259165454398
0.000268186496323
0.000277224785788
0.000286268372367
0.000295302558248
0.000304332074959
0.000313378514408
0.000322447812041
0.000331527684608
0.00034059798689
0.000349637996382
0.000358630771035
0.000367553869478
0.000376384189784
0.000385102115576
0.000393695323259
0.000402151785381
0.000410459823913
0.000418609976165
0.00042659652405
0.000434412443354
0.00044204857624
0.000449494161307
0.000456737121458
0.000463760038899
0.000470539100651
0.000477045362509
0.000483246650752
0.000489108229143
0.000494596358038
0.000499685769772
0.000504367019566
0.000508649257774
0.000512556822822
0.000516121761852
0.000519378537124
0.00052236156783
0.000525104009913
0.000527636897799
0.000529988682639
0.000532185188007
0.00053424976782
0.000536203751238
0.000538073156778
0.000539904105196
0.000541662409851
0.000543363664381
0.00054502210095
0.000546651256527
0.000548264049004
0.000549872499603
0.000551486906457
0.000553113684705
0.000554753424318
0.00055638327176
0.000558095700611
3.367440623e-05
5.82381228421e-05
6.61819818909e-05
7.00129294921e-05
7.31667408648e-05
7.88783252991e-05
9.01247887903e-05
8.6290918952e-05
8.49187323662e-05
8.43785925698e-05
8.41587510988e-05
8.43622831409e-05
8.55134822455e-05
8.8189398478e-05
9.18344597076e-05
9.58628822593e-05
9.95827117402e-05
0.000103298860327
0.000107630926856
0.000112986705075
0.000119163528247
0.000125533388602
0.000131727830082
0.000137950105214
0.000144622449567
0.000152003791388
0.000159994189188
0.000168301020988
0.000176734885342
0.000185334260396
0.000194175657523
0.000203221206298
0.000212359072618
0.000221517047349
0.00023071049718
0.0002399681826
0.000249270231909
0.000258570631629
0.000267846526628
0.000277108290557
0.000286364027532
0.000295599569966
0.000304794296158
0.000313943403996
0.000323059028187
0.000332145270634
0.000341194915086
0.000350201090117
0.000359165304165
0.000368099759119
0.000377004572079
0.000385869293801
0.000394677818009
0.000403412271455
0.000412058013325
0.000420597139986
0.000429010858999
0.000437282461615
0.000445400198032
0.000453353552291
0.000461132328751
0.000468727975224
0.000476134101593
0.000483343951948
0.000490349014484
0.000497139638785
0.000503704178418
0.000510027656283
0.000516090523501
0.000521869743153
0.000527340216769
0.000532475873056
0.000537252770962
0.000541654028984
0.000545674815723
0.000549324104375
0.000552622641635
0.000555597944897
0.000558280272459
0.000560700368049
0.000562888218397
0.000564872223114
0.000566678714697
0.000568331831259
0.00056985360197
0.000571266438221
0.000572628357979
0.000573898951923
0.000575094140782
0.000576227819204
0.000577312842212
0.000578361250634
0.000579384226378
0.000580391791853
0.000581392075479
0.000582389564493
0.000583383946804
0.000584355788209
0.000585393815129
3.44832302985e-05
5.9892541719e-05
6.82230539514e-05
7.2228172524e-05
7.55096871467e-05
8.14278980819e-05
9.29982788404e-05
8.91741008259e-05
8.77690911538e-05
8.72139506735e-05
8.69878434177e-05
8.71623619877e-05
8.8223687972e-05
9.07153891624e-05
9.41062127642e-05
9.78068352874e-05
0.00010104614261
0.000103989505105
0.000107184959189
0.000111232060101
0.000116466378249
0.000122622860079
0.000129027363388
0.000135258741569
0.000141488246526
0.000148121221814
0.000155393183919
0.000163165260795
0.000171088438462
0.000178956573058
0.000186873166757
0.000195068745769
0.00020368660372
0.000212683352022
0.000221912322505
0.000231261444037
0.000240719970102
0.000250298137122
0.000259964294164
0.000269658112693
0.000279339524151
0.000289004454603
0.000298657054293
0.000308282200813
0.000317855274784
0.000327363437412
0.000336808498188
0.000346190292325
0.000355498876723
0.000364723098494
0.000373859556435
0.00038291490249
0.000391890188567
0.000400781203756
0.000409584279593
0.000418299081681
0.000426931721849
0.000435480003659
0.000443935691274
0.000452286268617
0.000460517893723
0.000468618698063
0.000476575423703
0.000484374054035
0.000492002438711
0.000499450914188
0.000506711602356
0.000513776839361
0.000520640380786
0.000527296794843
0.000533740657773
0.000539965167717
0.000545962649142
0.000551723471895
0.000557235617074
0.000562483903103
0.000567451030779
0.000572118095474
0.000576466293978
0.000580479231992
0.00058414623297
0.000587465736666
0.000590446357074
0.000593105765585
0.000595467319645
0.000597557087672
0.000599401933271
0.000601028357848
0.000602461728488
0.000603725806614
0.000604842583084
0.00060583265875
0.000606724291055
0.00060755601595
0.000608292878777
0.000608950033371
0.000609541039592
0.000610078262696
0.000610572958333
0.000611035241522
0.000611473852138
0.000611895593469
0.000612304019875
0.000612698901431
0.000613064807067
0.000613485480256
3.52973866045e-05
6.15389802244e-05
7.01462005071e-05
7.40313451929e-05
7.63991401682e-05
7.91205407461e-05
8.4914892175e-05
9.65920633837e-05
9.22398153954e-05
9.03894538069e-05
8.96320986422e-05
8.93089045084e-05
8.93906740871e-05
9.03020233178e-05
9.25733434663e-05
9.57684878833e-05
9.93750792152e-05
0.000102596254297
0.000105537045148
0.000108716193181
0.000112718564651
0.000117869261122
0.000123887957508
0.000130039513764
0.00013581929349
0.000141336661159
0.000147043530837
0.000153408469006
0.000160635314411
0.00016852232775
0.000176649330568
0.000184745910182
0.000192877945359
0.000201254985086
0.000209997516293
0.000219030031127
0.00022816883918
0.000237300876421
0.000246477064613
0.000255815418497
0.000265389616136
0.000275181273013
0.000285113055783
0.000295116486348
0.000305162903723
0.000315237422228
0.000325310213304
0.000335341829347
0.000345305069966
0.000355187113462
0.000364982300892
0.000374678206501
0.000384259926006
0.000393719500113
0.000403055701299
0.000412266777782
0.000421347155726
0.000430291494222
0.000439098357208
0.000447772560602
0.000456315315704
0.00046472556991
0.000473002319852
0.000481145858004
0.000489159762862
0.000497042652152
0.00050478918623
0.000512391259594
0.000519840090797
0.00052712753323
0.000534245188605
0.0005411840706
0.000547936671882
0.0005544966286
0.000560858949789
0.000567018790589
0.00057297233402
0.000578715884905
0.000584245642211
0.000589556700412
0.000594643408614
0.000599498414195
0.000604112547216