/*--------------------------------*- C++ -*----------------------------------*\
| =========                 |                                                 |
| \\      /  F ield         | OpenFOAM: The Open Source CFD Toolbox           |
|  \\    /   O peration     | Version:  2.3.1                                 |
|   \\  /    A nd           | Web:      www.OpenFOAM.org                      |
|    \\/     M anipulation  |                                                 |
\*---------------------------------------------------------------------------*/
FoamFile
{
    version     2.0;
    format      ascii;
    class       volScalarField;
    location    "500";
    object      p;
}
// * * * * * * * * * * * * * * * * * * * * * * * * * * * * * * * * * * * * * //

dimensions      [0 2 -2 0 0 0 0];

internalField   nonuniform List<scalar> 
10011
(
-13.4027307534
-16.1317461205
-17.0364347488
-17.3631539964
-17.6439247241
-17.9335800231
-18.2312732558
-18.5499613102
-18.9048806468
-19.3096402008
-19.7792681054
-20.333827007
-21.0025361143
-21.8307416011
-22.8911751341
-24.3142589858
-26.4167005994
-30.3264904795
-17.1909723264
-17.5694932147
-17.7371047189
-17.7786185359
-17.9018701956
-18.098680783
-18.3402297729
-18.6231379075
-18.9539666552
-19.3415707341
-19.798042614
-20.3413322052
-20.9987937154
-21.8116021773
-22.8442938304
-24.2058919194
-26.0804898975
-28.5511328331
-17.0357181724
-16.9038326686
-17.1617814098
-17.3823608543
-17.6207509051
-17.8927127275
-18.186406788
-18.5050164891
-18.8593951944
-19.2613712601
-19.7245513104
-20.2668886107
-20.9129358234
-21.6978661701
-22.6733669529
-23.9120182861
-25.4983590963
-27.3851783675
-16.947360927
-16.959488883
-17.2883041927
-17.5420798043
-17.7679396406
-18.0137643676
-18.2819653855
-18.5774391608
-18.9104093423
-19.2916825079
-19.733246282
-20.2501963801
-20.8624721007
-21.5965419806
-22.4857495862
-23.5639984639
-24.8363614593
-26.1600269941
-16.9767479881
-17.0486151748
-17.3168884365
-17.5380302337
-17.7430924673
-17.9745118198
-18.2344677277
-18.5245439894
-18.8518992212
-19.2251713543
-19.654104489
-20.1506115642
-20.7291956989
-21.4064484633
-22.1976528875
-23.1052825049
-24.0876250392
-24.9850112675
-17.0400022205
-17.1125832126
-17.3282511372
-17.5349748123
-17.7379000535
-17.9656702136
-18.2208210717
-18.5043625837
-18.8220748854
-19.1811647379
-19.5892724556
-20.0547906997
-20.5865139694
-21.1914720239
-21.8696364853
-22.6019959817
-23.3262878128
-23.901639992
-17.0899382777
-17.1529941159
-17.3334983432
-17.5279241982
-17.7254734408
-17.9448054583
-18.1896482857
-18.4612419865
-18.763940551
-19.1030317098
-19.483655881
-19.9104685068
-20.3865270831
-20.9104972537
-21.4712840359
-22.0387330233
-22.5490184906
-22.8953692673
-17.1234517627
-17.180054952
-17.3378746011
-17.51927136
-17.7086741606
-17.9184892061
-18.1523920559
-18.4113259533
-18.6981665697
-19.0164384248
-19.3690478787
-19.7575638531
-20.180826471
-20.6322215676
-21.0951924511
-21.5369342577
-21.9004742209
-22.1080947522
-17.1474132529
-17.1993147322
-17.3389980378
-17.5076294079
-17.6881765141
-17.8882503608
-18.1108847604
-18.3565607397
-18.6269410429
-18.9239868622
-19.2486943939
-19.6001724131
-19.9742087226
-20.3608859006
-20.7411838196
-21.0831726364
-21.3386477354
-21.4511180937
-17.166665498
-17.2137185214
-17.3357754623
-17.4901283748
-17.6596590798
-17.8476878134
-18.0562422607
-18.2852692752
-18.5351701447
-18.8062850802
-19.0977248165
-19.4063770472
-19.7256168778
-20.0434963546
-20.3406082321
-20.5884739548
-20.7493789166
-20.7851764984
-17.178503295
-17.2203610065
-17.325803155
-17.4645876727
-17.6206560251
-17.7939233699
-17.9852168181
-18.1937999673
-18.4188269882
-18.659077736
-18.9119669119
-19.1726266782
-19.4329142921
-19.6802885755
-19.896849037
-20.0593054212
-20.1404865637
-20.1169369329
-17.1795507981
-17.2159866316
-17.3058500583
-17.4278851916
-17.5678985671
-17.723451559
-17.8940531247
-18.0781754828
-18.2738375463
-18.4784690186
-18.6881613548
-18.8969520054
-19.0962072996
-19.2741446502
-19.4157473908
-19.5035886224
-19.5197729789
-19.451568278
-17.1658144288
-17.1967043429
-17.2717803372
-17.3760281653
-17.4974641797
-17.6322379965
-17.7786236298
-17.9343022529
-18.0963771999
-18.261291489
-18.4243442035
-18.5792420099
-18.7178407571
-18.8301436236
-18.9046992419
-18.9296576718
-18.8944147271
-18.7933681314
-17.1326605213
-17.157937858
-17.2187510443
-17.3043582755
-17.4049357886
-17.5159955016
-17.6348567733
-17.7585539667
-17.8835980067
-18.0059258824
-18.120656612
-18.2218979603
-18.3027510008
-18.3555590503
-18.3724394401
-18.3461859919
-18.2713645019
-18.1466682837
-17.0750097204
-17.0946596279
-17.1415431156
-17.2078820223
-17.2857895707
-17.3707109265
-17.4594133364
-17.5485691926
-17.6344969541
-17.7131488646
-17.7800428562
-17.8302501442
-17.8585328747
-17.8596465004
-17.8287854432
-17.7621907912
-17.6577482465
-17.5164669307
-16.9877649148
-17.0018431278
-17.0351275615
-17.081983017
-17.1362131589
-17.1935805534
-17.2507310074
-17.3043442456
-17.3509611957
-17.3870099445
-17.4088360353
-17.412775406
-17.3953127409
-17.3533190247
-17.2843312275
-17.1868871478
-17.0607882188
-16.908097594
-16.8665705339
-16.8752130368
-16.8954533335
-16.9233003768
-16.954022586
-16.9839275471
-17.0099111916
-17.0290226025
-17.0383778115
-17.035201942
-17.0168896128
-16.9810861706
-16.9258015207
-16.8495458097
-16.7514582323
-16.6314583003
-16.490332425
-16.3305133446
-16.7204925354
-16.7245258332
-16.7338187374
-16.7455699491
-16.7561814504
-16.7625369747
-16.761990246
-16.7521724319
-16.730928523
-16.6963439566
-16.6467949339
-16.5810021194
-16.4980877979
-16.3976310794
-16.2797039389
-16.144930454
-15.9945010086
-15.8309034915
-16.575210814
-16.5761515044
-16.57802565
-16.578741023
-16.5753239531
-16.5650301868
-16.5456634187
-16.5154350443
-16.472843376
-16.4166767178
-16.3460499492
-16.2604276839
-16.1596384431
-16.0438832213
-15.9137269091
-15.7701203184
-15.6143882015
-15.449000888
-16.4447887872
-16.4438951601
-16.4415077633
-16.4358572078
-16.4239451391
-16.4030994725
-16.371530399
-16.3279722015
-16.2714429155
-16.201256866
-16.11705864
-16.0188156716
-15.9068019215
-15.7815830893
-15.6439894994
-15.4951255504
-15.3363483938
-15.170107364
-16.3296793221
-16.3276868476
-16.3235129831
-16.3153057604
-16.2991224039
-16.2721228789
-16.2330130582
-16.1810182857
-16.1155531059
-16.0363329031
-15.9434039543
-15.8370938335
-15.7179747616
-15.5868425215
-15.4446854008
-15.2926930319
-15.1322332373
-14.9657897216
-16.2287816
-16.2257304691
-16.2219149367
-16.2145581409
-16.1972892275
-16.1671514046
-16.1236735281
-16.0665323843
-15.9954095541
-15.910341339
-15.8117038407
-15.7001005152
-15.5763172581
-15.4413055622
-15.2961511789
-15.142083812
-14.9804476333
-14.8137510365
-16.1406747581
-16.1354339948
-16.1342380252
-16.1312499768
-16.1154107588
-16.0843094229
-16.0388171331
-15.9789593574
-15.9045900584
-15.8160439743
-15.713978665
-15.599202549
-15.4726505879
-15.3353810235
-15.1885452132
-15.0334022298
-14.8712909809
-14.7048899259
-16.0641319123
-16.0537836539
-16.0578634365
-16.062191499
-16.0489669031
-16.0181227057
-15.972067617
-15.9107887226
-15.8343118557
-15.74337424
-15.6389346398
-15.5219807677
-15.3935661804
-15.2548247271
-15.106935299
-14.95112895
-14.7886252261
-14.6220462937
-15.9976718659
-15.9782705194
-15.994991116
-16.0096330177
-15.9988422517
-15.9695862844
-15.9253889563
-15.8651837749
-15.7889456976
-15.6977753967
-15.5928718835
-15.475364808
-15.3464225422
-15.2072695957
-15.0591412886
-14.9032871329
-14.7408945087
-14.5749109074
-15.9364320666
-15.890920417
-15.9369028766
-15.9663015612
-15.9535746081
-15.9214613323
-15.8756511107
-15.8140886681
-15.7368185014
-15.6451334446
-15.5401932571
-15.4230352177
-15.2947675538
-15.1565742238
-15.0096441359
-14.8551331446
-14.6939486581
-14.5284751393
-15.9185535957
-15.786957654
-15.8867479433
-15.9580948516
-15.9651888131
-15.9445660588
-15.9038369045
-15.8426232809
-15.7632263148
-15.6683117979
-15.5596996541
-15.4387996494
-15.3069625675
-15.1655280911
-15.015786405
-14.8589596
-14.695963855
-14.5295337728
-16.0091357226
-15.6612727787
-15.6974905008
-15.7406283625
-15.7560181965
-15.7601070154
-15.7446170963
-15.7056362805
-15.6455452238
-15.567198773
-15.4726136116
-15.3635154812
-15.2416177932
-15.1086085888
-14.9661030114
-14.8156210907
-14.6581997431
-14.4963095365
-16.3045524052
-16.3528809685
-16.3458774414
-16.2131087436
-16.1030825209
-16.0228561893
-15.9447413919
-15.8583267018
-15.762514861
-15.6571155914
-15.5418022571
-15.4166638442
-15.2822701644
-15.1394991374
-14.9894161043
-14.8332628314
-14.6721555517
-14.5103718953
-12.609277367
-14.7858662797
-15.5442727021
-15.7047828378
-15.7625906394
-15.7892943832
-15.7794893206
-15.7381816803
-15.6733768315
-15.5898725915
-15.4902990259
-15.3766487079
-15.250762294
-15.1143870023
-14.9692102776
-14.8169922222
-14.6594415306
-14.503955184
17.6929551323
17.8511592337
18.3893566696
18.0899143448
17.8122656108
17.675332015
17.5910010138
17.5111639342
17.4344660729
17.3654920846
17.3041808027
17.2489584608
17.1988223804
17.1532720253
17.1120204277
17.0748480403
17.0415316848
17.0119284377
16.9860063171
16.9638845122
16.9458512624
16.9323874062
16.9242012775
16.9223119127
16.9283017379
16.9447915241
16.9761218926
17.0328852131
17.1176248727
17.0695375506
17.2680120849
17.4582330624
17.7210987988
17.9046756379
18.2030884142
18.0631727402
17.8292477419
17.6872644777
17.5961772957
17.5142034283
17.4366820738
17.3669857477
17.3050877854
17.2494683344
17.1990821056
17.1534153828
17.1121156434
17.0748824443
17.0415018216
17.0118390714
16.9858460153
16.96363062
16.9454918479
16.9319215501
16.923606405
16.9215105042
16.9271357041
16.942929576
16.9726513921
17.0249145834
17.0864884847
16.3426288736
16.5096595312
16.6572917795
16.8410864648
17.0809065543
17.2476710472
17.4378302682
17.6665785229
17.8267982476
18.0009944551
17.9454149415
17.7808943087
17.6555404442
17.5693814278
17.493322069
17.4209350855
17.3547312127
17.2952609035
17.2414885528
17.1925602973
17.1480386949
17.1076330886
17.0711023303
17.038275034
17.0090571422
16.9834505841
16.9614799965
16.9433527821
16.9296230403
16.920965529
16.9182114889
16.9226288685
16.9361595996
16.9612128319
17.0027630194
17.0370357015
15.6573188966
15.8174217844
15.9549261726
16.1290766355
16.3547318746
16.4861163221
16.6422174936
16.8377383964
17.0597772758
17.2245255
17.4042328301
17.596764265
17.7445408569
17.8687180725
17.8547624404
17.7434050579
17.6363299215
17.5542875137
17.4816206647
17.4122895904
17.3479936274
17.2896536824
17.2366715694
17.1883560865
17.1443120476
17.1042757905
17.0680252279
17.0353919559
17.006275596
16.9806558091
16.9585898646
16.9402317973
16.9260339339
16.9166067449
16.9126026961
16.9149549898
16.9249194063
16.943358531
16.9719273395
16.981954635
14.9843126755
15.1426480582
15.2752233699
15.4448615229
15.6691557088
15.7929619654
15.9401759703
16.1245749181
16.3307109286
16.4714336946
16.6308917109
16.8220590556
17.0188975724
17.1849909851
17.3532464546
17.5224507462
17.6575842534
17.7542196042
17.7576684973
17.6833586341
17.5964486479
17.5223976749
17.4555245058
17.391404999
17.331106868
17.275696718
17.224977453
17.178474213
17.1358820601
17.0969970686
17.0616439407
17.0296838891
17.001032064
16.9756681401
16.9536366354
16.9351148341
16.9204601829
16.9100929818
16.9044745912
16.9041678923
16.9097050508
16.9205551365
16.9359493296
16.9255177969
14.3135672887
14.4708736138
14.6008002079
14.7688715651
14.9954822592
15.116628869
15.2601196575
15.4408606153
15.6450936399
15.7805510903
15.9320644126
16.1134203704
16.2967064018
16.4477123393
16.6079331157
16.7891866191
16.9728952934
17.1383555969
17.296852889
17.4480581532
17.5701488446
17.6518115061
17.6657362046
17.6188488961
17.5517709432
17.4877421096
17.4275188599
17.3689196889
17.3128687785
17.2605543479
17.212163985
17.1674814713
17.1263253026
17.088564299
17.0540740094
17.0227455456
16.9945052123
16.9693248817
16.9472216973
16.9284094601
16.9131312998
16.9015600377
16.8939555598
16.8905061546
16.8910690689
16.894003034
16.8969674758
16.8697481508
13.4793699745
13.6366137291
13.7557973827
13.9027546865
14.0844262006
14.3203222843
14.4409975494
14.5834487764
14.7645236393
14.9709103968
15.1054338676
15.2541320991
15.4329209151
15.6132449933
15.7595618488
15.9130079764
16.0862530148
16.2608239082
16.4192908345
16.5800805781
16.7524857293
16.9253734016
17.0853876744
17.2344241876
17.3715298909
17.4825118838
17.5559254194
17.5770648571
17.5498776499
17.4999766159
17.4464276629
17.3934173633
17.3407620294
17.2894991823
17.2408764942
17.1953666347
17.1529863783
17.1136790512
17.0773877325
17.0440403415
17.0135607039
16.9858886981
16.9609891395
16.9388759469
16.9197662227
16.9037611593
16.8908116597
16.8809740723
16.8740827897
16.8694201781
16.8645420817
16.8562107382
16.8155234674
12.6340141108
12.7972534924
12.9176456027
13.065380961
13.2494391228
13.488770615
13.6017846267
13.7287970065
13.8970905595
14.0897514265
14.2994876458
14.4324730846
14.5802681528
14.7599243082
14.9406363842
15.0858737005
15.2369782996
15.4078707566
15.5797778439
15.7348749237
15.891004727
16.0582626674
16.2268207678
16.3866773967
16.5457785205
16.7101816579
16.87346361
17.0265186434
17.1672484378
17.2936166762
17.3959150223
17.4646668138
17.491383288
17.4788354478
17.4435962773
17.4005196242
17.3551526086
17.3087638256
17.2626377223
17.218082235
17.1757899067
17.1359905781
17.0987591775
17.0641200302
17.0320572124
17.002529739
16.9754915796
16.9508945058
16.9288054327
16.9093713692
16.8924993795
16.8780062145
16.8657469785
16.85523456
16.845294135
16.8329580043
16.8145767968
16.7632536017
11.767080701
11.9373841933
12.0594168416
12.2085194876
12.3956685194
12.64324
12.7592799267
12.8880012992
13.058430183
13.25225964
13.4606786608
13.5866205914
13.7221587551
13.8957349533
14.0871043316
14.2693542608
14.4135463522
14.5643135216
14.7357482499
14.907879015
15.0626989203
15.2175378546
15.383178026
15.5499335939
15.7078185309
15.8644626329
16.0267799066
16.1901393825
16.3486094663
16.5050994256
16.6628295209
16.8178713799
16.9637769211
17.0970703217
17.2149952288
17.3106166323
17.3766729039
17.4079741785
17.4066564473
17.3837705785
17.3506307054
17.3129752774
17.2729792537
17.2321907898
17.1919797183
17.1531981602
17.1162526343
17.0813403244
17.0485639807
17.0179614912
16.9895257369
16.9632232315
16.9389946936
16.9169989361
16.8972425239
16.8794094933
16.863271796
16.8484934084
16.8343101222
16.8192082902
16.7999289985
16.772735566
16.7131119601
10.8732216887
11.0516956281
11.1761685762
11.3271673507
11.5180809162
11.7753974337
11.8960435667
12.0270789843
12.2010016582
12.3990855523
12.6132241393
12.7428907912
12.8802539295
13.055828988
13.2480493615
13.4276217936
13.5661714848
13.7098508795
13.8800464941
14.0626259816
14.2372636673
14.3921940949
14.5473710254
14.7135212882
14.8805865949
15.0386210803
15.1947211815
15.3561910363
15.5187373495
15.6766780224
15.8329466356
15.9916385358
16.1506684278
16.306463727
16.4596049769
16.6114025822
16.7591895661
16.8982480548
17.0249044036
17.1361089341
17.2267020639
17.2912748261
17.3265089069
17.3340966261
17.3216348127
17.297686068
17.2675993729
17.2340063586
17.1986583777
17.1629772468
17.1279257184
17.0940494618
17.0616536417
17.0309142949
17.0019200353
16.9746959312
16.9492201046
16.9254862978
16.9036214839
16.8834734396
16.8646406218
16.8468212165
16.8295042444
16.8117043522
16.7916774744
16.7660535175
16.7312077517
16.6651629104
9.94929517546
10.1348734036
10.2618209053
10.4154039346
10.6111245082
10.8797704018
11.0066170328
11.1405294413
11.3187599997
11.522494603
11.743781154
11.8785520548
12.0188254397
12.1986017317
12.3957293761
12.5791905523
12.7209239916
12.8663998822
13.0379751265
13.2207655624
13.3933194619
13.54471874
13.6968918482
13.8644230486
14.0401681072
14.2107545981
14.3699283705
14.5269735418
14.6892197588
14.8523842511
15.0109447037
15.1675049062
15.3263511807
15.4857862032
15.6426169469
15.7977201465
15.9532880816
16.1083895522
16.2608218267
16.4101676516
16.5565772538
16.6979992047
16.8308336965
16.9516676815
17.057490499
17.1443279518
17.2081793465
17.2468507526
17.2616908136
17.2580709575
17.2424859352
17.2196598812
17.1923610328
17.1624561926
17.1313992319
17.1002239792
17.0695793723
17.0398601734
17.0113069727
16.9840535946
16.9581522125
16.933579526
16.9104661014
16.8888027253
16.8682281139
16.8483934952
16.8289040694
16.8090951414
16.7878160127
16.763183108
16.7318453939
16.6903990145
16.6194169765
8.81192835582
9.00785262552
9.13597094222
9.28017389188
9.45329652116
9.6613018955
9.94753512254
10.0827970566
10.220479702
10.4047439667
10.6164517698
10.8467129599
10.9876959431
11.1315192498
11.316641907
11.520234167
11.7089595502
11.8551962568
12.0040115288
12.1796354492
12.3667977828
12.5430311338
12.6978069043
12.8521835863
13.0210707388
13.197130233
13.3667429587
13.5244031445
13.6810937457
13.8460305338
14.016201429
14.1835218663
14.3441712967
14.5023588056
14.6625198414
14.8231091374
14.9811530627
15.1374118431
15.2942029475
15.4509878405
15.6060115635
15.7593309764
15.9119766572
16.0634555295
16.2123075178
16.3577296663
16.499226331
16.6350590405
16.7623660973
16.8781497235
16.9796326507
17.063670305
17.1272924979
17.1690055018
17.1898857754
17.1938246089
17.1857824273
17.1698083313
17.1486033981
17.1240636038
17.0976482019
17.0704290818
17.0431260172
17.016203448
16.9899557297
16.9645554348
16.9400784948
16.9165634476
16.8941346557
16.8726423912
16.8516742155
16.830885711
16.8097878941
16.7875936287
16.7630381137
16.7341708133
16.6977480382
16.6506345509
16.5758664067
7.6270791036
7.83328039392
7.96615348615
8.11421407439
8.29329947597
8.50989499792
8.81048990314
8.95013035053
9.08439262744
9.25320440888
9.45650964117
9.67949957021
9.91888275132
10.0648689505
10.2123396856
10.4044817049
10.6165122023
10.8116781517
10.9629330071
11.1158079533
11.2966565731
11.4896214173
11.6709394535
11.8305883007
11.9890501894
12.1620506416
12.3422092364
12.5155338961
12.676633274
12.8357964651
13.0022844443
13.1731773482
13.3405947132
13.5013618724
13.6608499427
13.8244258649
13.9909833315
14.1559109365
14.3167342313
14.4752365275
14.6339542113
14.7925344603
14.9494528013
15.1048076467
15.25977041
15.4142207587
15.5671751617
15.7183925826
15.8682376037
16.0163335992
16.1616167853
16.3031700749
16.4401802399
16.5710912821
16.693557358
16.8050058603
16.9029744594
16.9849318781
17.0486468607
17.0930742588
17.1190740821
17.1295251535
17.1282509525
17.1186643406
17.1032837735
17.0839638312
17.0621409901
17.0388975198
17.0149959351
16.9909506604
16.9670976864
16.9436392624
16.9206609211
16.8983331309
16.8766681859
16.8553491731
16.8340450697
16.8123755065
16.7897656286
16.765336894
16.7377527398
16.7050498151
16.6641459122
16.612182493
16.5345049375
6.19321726015
6.41345208102
6.55257974101
6.70182023982
6.87114097032
7.06177743079
7.29119196128
7.61523314062
7.7669087313
7.90626661217
8.08201782929
8.29470809227
8.52772113131
8.77478505985
8.92217298215
9.06361967195
9.24604524674
9.46021455919
9.68256392321
9.88323362975
10.0387489187
10.1962323824
10.3836350029
10.5838324806
10.7713114615
10.9365845258
11.1000996182
11.2783889332
11.4639904078
11.6424630959
11.8086134952
11.9722364107
12.1428622404
12.3177073864
12.48886062
12.6531282927
12.8154111293
12.9809924853
13.1489435703
13.3150053033
13.477236216
13.6381384332
13.800736895
13.9647410563
14.1276438715
14.2878470998
14.4460132729
14.6035411795
14.7604851097
14.9160832681
15.0702304201
15.2234720346
15.3757835671
15.5265813309
15.6755394136
15.8226615311
15.9675688989
16.1094096879
16.2472655387
16.3801926348
16.5067702649
16.625030744
16.7327852913
16.8279011768
16.908318677
16.9723345312
17.0191986002
17.0495970574
17.0657000738
17.0704838329
17.0667993615
17.0569275635
17.0426310569
17.0252980497
17.005998279
16.9855134219
16.9643896967
16.942992529
16.9215464999
16.9001984613
16.8791161631
16.8582020551
16.8371202546
16.8155687241
16.7931185864
16.7691269658
16.7426515477
16.712317965
16.6761886568
16.6313712772
16.5752683307
16.4953381424
4.68555120432
4.91959498436
5.06554073383
5.21898435709
5.39352927385
5.59231054801
5.83339695439
6.17876663131
6.34044847701
6.48252097842
6.65494907769
6.85072588915
7.0758567724
7.32248284488
7.58268688741
7.73770104624
7.88305008326
8.07338437575
8.29801597469
8.52958645473
8.73432133169
8.88967424795
9.04429221959
9.22996592744
9.43858034934
9.64932283934
9.8425746374
10.0128291892
10.181658272
10.3659522893
10.5578553885
10.7422654901
10.9141575602
11.0831281747
11.2589355038
11.4389454711
11.6152018328
11.7845478741
11.951523513
12.1213960385
12.2933830502
12.4633102369
12.6291973037
12.7932577946
12.9584043572
13.1245249805
13.2894640497
13.4520505002
13.6133903429
13.775150164
13.9373144942
14.0985432478
14.2578130737
14.4152910621
14.5717166769
14.727221357
14.8814288506
15.0341976363
15.1857446196
15.3360303361
15.4846683798
15.6313234472
15.7758066347
15.9177099026
16.0562966916
16.1906911064
16.3199192221
16.4426830923
16.5573052678
16.6619268165
16.7547245043
16.8340094819
16.8984587276
16.9475199077
16.9817395696
17.0027809847
17.0129834996
17.0147191221
17.0100146197
17.0005089592
16.9875217114
16.9720917249
16.9550006237
16.9368102622
16.9179020218
16.8985075014
16.8788849453
16.8591106043
16.8389640096
16.8181971703
16.7964949716
16.773380728
16.7481609285
16.7198512473
16.6870650652
16.6479159202
16.5997107388
16.540084502
16.4583879873
3.10959708184
3.34877358402
3.49753174338
3.653477156
3.83186255371
4.03785168692
4.29158041341
4.66230745115
4.8389660218
4.98574571109
5.16470908899
5.36968191924
5.60692932082
5.86762953737
6.14021656556
6.30122927248
6.44486876222
6.63001479891
6.84681048856
7.08502524246
7.32738758355
7.54014705515
7.70140370576
7.86120193458
8.05448338146
8.27190164753
8.48991523018
8.68714104098
8.85908777261
9.02908228881
9.21670821347
9.41879573904
9.62147570542
9.81259707532
9.99022262212
10.1648928623
10.346466067
10.5322962696
10.7143298098
10.8894402234
11.0619627074
11.2371242638
11.4142921554
11.5893828532
11.760411822
11.9293539327
12.099003131
12.2693513851
12.4383472297
12.6048060154
12.7696768376
12.9345304423
13.0995042562
13.2635511715
13.4259785753
13.5872399359
13.7482216511
13.9089693707
14.0687684647
14.2269706362
14.383547306
14.5388612065
14.6930153167
14.8458141126
14.997125938
15.146992372
15.2953347638
15.4418575966
15.5862360111
15.7281814431
15.8672620392
16.0028099943
16.134004626
16.2598969442
16.3793066598
16.4907881328
16.5927605902
16.6836742223
16.7621362552
16.8271012686
16.8781514806
16.9157220024
16.9411054074
16.9561581002
16.962851492
16.962964011
16.9579946336
16.9491799123
16.9375138337
16.9237629226
16.9084913293
16.8920850695
16.8748227062
16.8569517785
16.838467542
16.8191561113
16.7987993719
16.7770559426
16.7534115705
16.7271370843
16.6972233725
16.6622903514
16.6205176768
16.569408016
16.506794839
16.4236917668
1.23212780732
1.47484773787
1.62753167169
1.78875639914
1.97046871561
2.16223516999
2.37859100866
2.6516551847
3.05755578351
3.25088183362
3.40106811957
3.58766866306
3.80358649394
4.05498729832
4.33347095599
4.62250525305
4.79351006015
4.94037873974
5.13404987443
5.36398302163
5.61674340188
5.87192184288
6.09175797505
6.25537871129
6.41467434072
6.60741060143
6.82721427288
7.05936348219
7.28700039013
7.49141437763
7.66959928337
7.84573603476
8.04037755161
8.24979423956
8.45875434187
8.65446568511
8.83568701922
9.01431328049
9.20188111999
9.39785677069
9.59419020932
9.7836825167
9.9651753732
10.1437698254
10.3247986679
10.5077130556
10.6885471482
10.8653445405
11.0399337294
11.2149881029
11.3905970546
11.5648182695
11.7364673351
11.9063503902
12.0759080513
12.2453351108
12.4136701696
12.5802288596
12.745388792
12.9099755543
13.0741557291
13.2374402782
13.3994315166
13.5602965402
13.7204861029
13.8800401444
14.0385685494
14.1956585065
14.3512155484
14.5053898398
14.6582329475
14.8096252583
14.9594472451
15.1076473905
15.2541107511
15.3985808324
15.5407442151
15.6802651493
15.8167000467
15.9494287242
16.0776871901
16.200580023
16.3170388612
16.4258091986
16.5255424084
16.6149234643
16.6927973293
16.7583246538
16.8111806034
16.8517114708
16.8809334784
16.9003332015
16.9115504696
16.9161329748
16.9154346382
16.9106003093
16.902569145
16.8920812087
16.8796917115
16.8657783439
16.8506846138
16.8345880542
16.8174081239
16.7990035353
16.7791501517
16.7574794593
16.7334492817
16.7063058369
16.6750280517
16.6382551331
16.5942398502
16.5406686554
16.4755386664
16.3912984847
-1.00965836442
-0.757427893821
-0.602524452205
-0.431987883091
-0.236227482295
-0.0329282317701
0.174244991186
0.41124256346
0.713160652036
1.15813133807
1.36467829158
1.50856000854
1.69864957163
1.91576646632
2.14987966818
2.42266309181
2.72773941682
3.03248407961
3.20371086178
3.34674569704
3.54976961524
3.79796858503
4.07105259176
4.34341708143
4.5720900811
4.73947391016
4.90297334326
5.10540808109
5.33890255706
5.58476848926
5.82297390729
6.03347421344
6.21486040678
6.39358806326
6.59208638506
6.80915953378
7.03345028585
7.25222382838
7.45547361909
7.64347420756
7.82871461381
8.02296110718
8.22549295428
8.4278177467
8.62264258147
8.80929086824
8.99367867465
9.18203697516
9.37465966129
9.56731945259
9.75591540282
9.93951552098
10.1204802249
10.3016002438
10.4830746864
10.6631190582
10.8405997861
11.0162374567
11.1913574415
11.3662075695
11.5399095279
11.7117845893
11.882127419
12.0516577014
12.2205701198
12.3884355817
12.5548759744
12.7200300454
12.8843228906
13.0478885142
13.2105065862
13.3719524743
13.5322723119
13.6916798422
13.8501924954
14.0075844768
14.1635866084
14.3180890614
14.4711260393
14.6227019182
14.7727232056
14.9210751139
15.0676573077
15.2123266661
15.3548420175
15.4948987933
15.632142934
15.7661304873
15.896279682
16.0218818749
16.1421069541
16.2559920108
16.3624428187
16.4603037905
16.548458225
16.6259419644
16.6920709769
16.7465855814
16.7897610075
16.8224043246
16.8457160158
16.8610631311
16.8697858435
16.8730959579
16.8720430801
16.8675053375
16.8601887215
16.8506332264
16.8392309874
16.8262909724
16.8119366968
16.7961102862
16.7786917266
16.7594394594
16.7379635096
16.713701618
16.6858840373
16.6534873513
16.6151781528
16.5692836725
16.5136574474
16.4464271789
16.3612563915
-3.17359118962
-2.92987845869
-2.77759833667
-2.59675566895
-2.39180068193
-2.17895633899
-1.9299060465
-1.59963000724
-1.10700043293
-0.866723617631
-0.714770388426
-0.516095455804
-0.292195288891
-0.0626275376843
0.184227086403
0.481771851495
0.818894139014
1.14756028969
1.31803450231
1.45018898411
1.65123240268
1.89696764149
2.16565750693
2.4573754874
2.74983162979
2.99029716351
3.1573987304
3.32079793625
3.53255516104
3.78159809601
4.04445148775
4.29727305975
4.51702802085
4.70342512153
4.88785574016
5.095464223
5.3240402801
5.55984088709
5.78822482684
5.99826784934
6.1909361544
6.38082407763
6.58147161968
6.79366549872
7.01026623536
7.22284368005
7.42570836613
7.61929260588
7.81026359504
8.00522483232
8.20442448669
8.40336530165
8.59787036051
8.78735279713
8.9748127161
9.16367358476
9.35440803529
9.54483223601
9.73257675302
9.91691980526
10.0989875412
10.2802959973
10.4611692275
10.6407893044
10.818506899
10.9946150389
11.169796778
11.3442687107
11.5176199085
11.6894626863
11.8599058193
12.029325618
12.1978685492
12.3653367076
12.5315189625
12.6964668476
12.8604068055
13.0234320822
13.1854365228
13.3462870145
13.5059839767
13.6646231935
13.8222002899
13.9785668164
14.1335336673
14.2869928604
14.4389205756
14.5892858341
14.7379985161
14.8849423546
15.0299915543
15.172983825
15.3136824728
15.4517891605
15.5869466138
15.7187179947
15.8465539656
15.9697958475
16.0876781719
16.1993312473
16.3037913293
16.4000579763
16.4871750862
16.5643289215
16.6309530369
16.6868365234
16.7322037358
16.7677104307
16.7943437364
16.8132556149
16.8256097558
16.8324877108
16.8348464493
16.8335008151
16.8291179684
16.8222244581
16.8132204526
16.8023254436
16.7896280609
16.7751368123
16.758723599
16.7401250304
16.7189319913
16.6945654566
16.6662441164
16.6329467535
16.5933693382
16.5459086517
16.4885645795
16.4195640997
16.3335818446
-5.13149310822
-4.8830076894
-4.72539690537
-4.53041753176
-4.30284897441
-4.04022434153
-3.70687510338
-3.21647119212
-3.0319518666
-2.87293531875
-2.65994299408
-2.41995864712
-2.15659857267
-1.83328192953
-1.46177225099
-1.09144616463
-0.902062768423
-0.774766918438
-0.573941199284
-0.328590669217
-0.0678656592897
0.212099259893
0.521954631926
0.835296834364
1.08982957486
1.25957040285
1.42023594836
1.63252663582
1.88379192569
2.15345379717
2.43130941081
2.69839978053
2.92857105037
3.12009021419
3.30951590669
3.52651373611
3.76802556952
4.01762573568
4.2584705138
4.47823675023
4.67829584063
4.87568801606
5.08547043363
5.30818863403
5.53533952808
5.75729790492
5.96780853927
6.16772786936
6.36512247292
6.56797691401
6.77747677793
6.98949168955
7.19871470996
7.40167976805
7.59854978133
7.79294994916
7.98868497337
8.1862797418
8.38339819443
8.57762066564
8.76847185136
8.9575331674
9.14675088244
9.33654436588
9.52574734507
9.71293816771
9.89757896712
10.0802178652
10.2617092063
10.442335707
10.6217202267
10.7994954496
10.9757885088
11.1509710663
11.325203069
11.4982869752
11.6699997616
11.8403809694
12.0096356326
12.1778651889
12.3449754625
12.5108460076
12.6754952361
12.839047542
13.0015637422
13.1629878065
13.3232351621
13.4822878494
13.6401806463
13.7968927042
13.9523135729
14.1062992821
14.2587469361
14.4096023673
14.5588100162
14.7062755753
14.8518785782
14.9954785451
15.1369004681
15.2759086502
15.4122096282
15.5454496321
15.6752028385
15.8009488606
15.9220735635
16.0378712075
16.147553351
16.2502640317
16.3451287981
16.4313220367
16.5081502723
16.5751388297
16.6321153253
16.6792681884
16.7171424148
16.7465645069
16.768516976
16.7840159557
16.7940273226
16.7994214124
16.8009504376
16.7992386573
16.7947835347
16.7879762941
16.7790086764
16.7679304814
16.7547536256
16.7393531719
16.7214515973
16.7006231341
16.6762742905
16.6476153779
16.6136301315
16.5730437432
16.5243157728
16.4655727879
16.3951183963
16.3085026511
-7.23053373275
-6.96803116951