/*--------------------------------*- C++ -*----------------------------------*\
| =========                 |                                                 |
| \\      /  F ield         | OpenFOAM: The Open Source CFD Toolbox           |
|  \\    /   O peration     | Version:  2.3.1                                 |
|   \\  /    A nd           | Web:      www.OpenFOAM.org                      |
|    \\/     M anipulation  |                                                 |
\*---------------------------------------------------------------------------*/
FoamFile
{
    version     2.0;
    format      ascii;
    class       surfaceScalarField;
    location    "500";
    object      phi;
}
// * * * * * * * * * * * * * * * * * * * * * * * * * * * * * * * * * * * * * //

dimensions      [0 3 -1 0 0 0 0];

internalField   nonuniform List<scalar> 
19742
(
3.08874033637e-06
4.48996761184e-08
3.01653138104e-06
7.22089550493e-08
2.95701193115e-06
5.95194496273e-08
2.89828577967e-06
5.87261511993e-08
2.84327490014e-06
5.50108792796e-08
2.79348283858e-06
4.97920612733e-08
2.74905554207e-06
4.44272961934e-08
2.70986543368e-06
3.91901080918e-08
2.67580267449e-06
3.40627589052e-08
2.64683302369e-06
2.89696505386e-08
2.62304436853e-06
2.37886549115e-08
2.60472046216e-06
1.83239061489e-08
2.59247276425e-06
1.22476976982e-08
2.58803515058e-06
4.43761346717e-09
2.59541654942e-06
-7.38139901743e-09
2.62418406404e-06
-2.87675147897e-08
2.70543751058e-06
-8.12534467008e-08
-2.39481158603e-07
2.94491866902e-06
3.46925577974e-06
3.18541578659e-08
3.46054374718e-06
8.09209873847e-08
3.44898532051e-06
7.1077876076e-08
3.43820026944e-06
6.95112020375e-08
3.42719083411e-06
6.60203143767e-08
3.41647986123e-06
6.050303391e-08
3.40652467321e-06
5.43824839462e-08
3.39774267387e-06
4.79721071811e-08
3.39059142136e-06
4.12140111776e-08
3.38558765898e-06
3.39734126963e-08
3.38336066978e-06
2.60156439042e-08
3.38477854888e-06
1.69060268512e-08
3.39137941736e-06
5.64682903678e-09
3.40544423303e-06
-9.62720236719e-09
3.4306880238e-06
-3.26251899429e-08
3.47441380536e-06
-7.24932964852e-08
3.54679593636e-06
-1.53635577834e-07
-3.21468064422e-07
3.62878284206e-06
3.8100170261e-06
3.38320669762e-08
3.82071920991e-06
7.0218803403e-08
3.82608253004e-06
6.5714555777e-08
3.83236450201e-06
6.3229229881e-08
3.8385232047e-06
5.98616114951e-08
3.84461369588e-06
5.44125425317e-08
3.85111263995e-06
4.78835396526e-08
3.85845528693e-06
4.06294599911e-08
3.86708418791e-06
3.2585109992e-08
3.87751799531e-06
2.3539605114e-08
3.89043284496e-06
1.31007940778e-08
3.90682854526e-06
5.103263815e-10
3.92805519522e-06
-1.55798210774e-08
3.95613553597e-06
-3.7707543262e-08
3.99451000041e-06
-7.09996545125e-08
4.04781739522e-06
-1.25800691419e-07
4.11648508819e-06
-2.2230327092e-07
-3.8622061092e-07
4.18123763458e-06
4.20700330178e-06
3.12351657756e-08
4.2184915162e-06
5.87305888355e-08
4.22624201127e-06
5.79640605571e-08
4.23444366755e-06
5.50275734386e-08
4.24320686308e-06
5.10984158031e-08
4.25257166027e-06
4.50477451587e-08
4.26291167423e-06
3.75435255073e-08
4.27458828971e-06
2.89528443273e-08
4.28797750578e-06
1.91958937534e-08
4.30355285955e-06
7.96425117064e-09
4.32195399906e-06
-5.30034558562e-09
4.34404021281e-06
-2.157588751e-08
4.37103324507e-06
-4.25728534734e-08
4.40462195283e-06
-7.1296251149e-08
4.44664140525e-06
-1.13019107061e-07
4.49741386014e-06
-1.76573146421e-07
4.55003299975e-06
-2.74922410634e-07
-4.17471349759e-07
4.58128373849e-06
4.6419316464e-06
2.65110979647e-08
4.65240293164e-06
4.82593034656e-08
4.66111842022e-06
4.92485718364e-08
4.67030061916e-06
4.58453743605e-08
4.68044847999e-06
4.09505548331e-08
4.69157613487e-06
3.39200901252e-08
4.70394087618e-06
2.51787840374e-08
4.71786865631e-06
1.50250640481e-08
4.73372937434e-06
3.33517557671e-09
4.75198149152e-06
-1.02878661503e-08
4.77321521303e-06
-2.65340672307e-08
4.79817607378e-06
-4.65367483878e-08
4.82774867452e-06
-7.21454543353e-08
4.86275165991e-06
-1.06299236648e-07
4.90322974325e-06
-1.53497190507e-07
4.94662274937e-06
-2.19966152637e-07
4.9840672838e-06
-3.12366945161e-07
-4.30903257847e-07
4.9974991918e-06
5.11977879643e-06
2.12814374157e-08
5.12979760038e-06
3.82404993849e-08
5.1394553965e-06
3.95907755836e-08
5.1496746979e-06
3.56260728224e-08
5.16097538512e-06
2.96498674655e-08
5.17341452124e-06
2.14809538683e-08
5.18721707422e-06
1.13762309095e-08
5.20270181184e-06
-4.59673713887e-10
5.22022742978e-06
-1.41904424972e-08
5.2402099527e-06
-3.02703891981e-08
5.26312628481e-06
-4.94503994536e-08
5.28948048196e-06
-7.28909456578e-08
5.31966637199e-06
-1.02331344473e-07
5.35362326712e-06
-1.40256131881e-07
5.39007399305e-06
-1.89947916541e-07
5.4251563507e-06
-2.55048510378e-07
5.45065455583e-06
-3.37865150381e-07
-4.34438184399e-07
5.4541894823e-06
5.6461571641e-06
1.61345657868e-08
5.65592312218e-06
2.84745411702e-08
5.6662962093e-06
2.92176883243e-08
5.67741612193e-06
2.450616006e-08
5.68970465124e-06
1.73613380103e-08
5.70325118959e-06
7.93441537348e-09
5.7182483275e-06
-3.620907135e-09
5.73497888652e-06
-1.71902328784e-08
5.75374958091e-06
-3.29611370119e-08
5.7748783261e-06
-5.13991345147e-08
5.79866520569e-06
-7.32372791529e-08
5.82530714827e-06
-9.95328883512e-08
5.85470732876e-06
-1.31731525072e-07
5.88611448506e-06
-1.71663288285e-07
5.91751781808e-06
-2.21351249657e-07
5.94485800055e-06
-2.82388692944e-07
5.96151810968e-06
-3.54525259593e-07
-4.32538455711e-07
5.9596183809e-06
4.40979541765e-06
1.24940038995e-08
4.41655661544e-06
2.17133432385e-08
4.42430880303e-06
2.14655005891e-08
4.43276410097e-06
1.60508619731e-08
4.44212456986e-06
8.00086898067e-09
4.4524756706e-06
-2.41668551547e-09
4.46393227853e-06
-1.50775152008e-08
4.47666311894e-06
-2.99210734284e-08
4.4908513946e-06
-4.71494127915e-08
4.50666530547e-06
-6.72130455009e-08
4.52421815957e-06
-9.07901333701e-08
4.54348788935e-06
-1.18802618235e-07
4.56417043352e-06
-1.52414069349e-07
4.58544640308e-06
-1.92939257943e-07
4.60566607765e-06
-2.41570924313e-07
4.6220632929e-06
-2.98785908281e-07
4.63079704691e-06
-3.63259013683e-07
-4.29864284796e-07
4.62812287591e-06
5.14375748693e-06
8.66715723815e-09
5.15089110698e-06
1.45797230407e-08
5.15938380237e-06
1.29728050484e-08
5.16883017655e-06
6.60448764814e-09
5.17933834254e-06
-2.50729715346e-09
5.19095790646e-06
-1.40362495719e-08
5.20376806462e-06
-2.78876735022e-08
5.21789131638e-06
-4.4044325317e-08
5.23344596529e-06
-6.27040618272e-08
5.25050287444e-06
-8.42699547651e-08
5.26902965168e-06
-1.09316910715e-07
5.28879824253e-06
-1.38571209189e-07
5.30924260667e-06
-1.72858433595e-07
5.32926896942e-06
-2.12965620781e-07
5.34705833498e-06
-2.59360289968e-07
5.35998746425e-06
-3.11715037631e-07
5.36491326306e-06
-3.68184812583e-07
-4.24202630382e-07
5.35925160857e-06
5.99985294202e-06
4.69987806364e-09
6.00727021008e-06
7.16245483067e-09
6.01640064067e-06
3.8423743035e-09
6.02674033182e-06
-3.73520365679e-09
6.03829540876e-06
-1.40623742435e-08
6.0510600603e-06
-2.68009012647e-08
6.06505686528e-06
-4.18844786215e-08
6.08033761231e-06
-5.93250724762e-08
6.09692855355e-06
-7.92950031916e-08
6.11477677126e-06
-1.02118172601e-07
6.13368608735e-06
-1.28226226914e-07
6.15322612439e-06
-1.5811124634e-07
6.17261351289e-06
-1.9224582219e-07
6.19058466992e-06
-2.30936777915e-07
6.20531419819e-06
-2.74089818322e-07
6.21448693001e-06
-3.20887769544e-07
6.21568694848e-06
-3.69384831135e-07
-4.15795164177e-07
6.20727948219e-06
6.99842132836e-06
6.47447653307e-10
7.00600536087e-06
-4.21577839584e-10
7.01563020258e-06
-5.78246756393e-09
7.0266991277e-06
-1.48041289445e-08
7.03910314423e-06
-2.64663909281e-08
7.05276857163e-06
-4.04663288156e-08
7.06764170939e-06
-5.67576165227e-08
7.08368000596e-06
-7.53633691861e-08
7.1007947106e-06
-9.640970796e-08
7.11879171875e-06
-1.20115180874e-07
7.13730796792e-06
-1.46742476203e-07
7.1557350846e-06
-1.76538363132e-07
7.17313836939e-06
-2.0964910709e-07
7.18819830852e-06
-2.45996717141e-07
7.19922511377e-06
-2.85116623667e-07
7.20431865123e-06
-3.25981307095e-07
7.20175504954e-06
-3.66821229536e-07
-4.04682287805e-07
7.19064217308e-06
8.16318418813e-06
-3.41802743715e-09
8.17079865881e-06
-8.03604869021e-09
8.18070894923e-06
-1.56927581508e-08
8.19225008353e-06
-2.63452634072e-08
8.20518963546e-06
-3.9405943014e-08
8.2193676995e-06
-5.46443930142e-08
8.23463596416e-06
-7.20258813318e-08
8.2508381544e-06
-9.15655595681e-08
8.26775561205e-06
-1.13327165749e-07
8.2850498963e-06
-1.37409465245e-07
8.30220878203e-06
-1.63901362059e-07
8.31849472504e-06
-1.92824306256e-07
8.33290773731e-06
-2.24062119472e-07
8.34418796716e-06
-2.57276947103e-07
8.35089303507e-06
-2.91821691678e-07
8.3515845762e-06
-3.26672848322e-07
8.34514533562e-06
-3.60381989045e-07
-3.90758199608e-07
8.33122124732e-06
9.5218115083e-06
-7.40279730247e-09
9.52928001642e-06
-1.5504556988e-08
9.53918231754e-06
-2.55950594412e-08
9.55081849896e-06
-3.79814449918e-08
9.56383275562e-06
-5.24201998485e-08
9.57796140748e-06
-6.87730450372e-08
9.59294752892e-06
-8.70120029284e-08
9.60851105236e-06
-1.07129083155e-07
9.62430233009e-06
-1.29118443618e-07
9.63985479886e-06
-1.52961934148e-07
9.65454808431e-06
-1.78594647629e-07
9.66758555982e-06
-2.05861781891e-07
9.67799691204e-06
-2.3447347181e-07
9.68468235948e-06
-2.63962394666e-07
9.68651489213e-06
-2.93654224423e-07
9.68250673476e-06
-3.22664691068e-07
9.67203112542e-06
-3.49906379797e-07
-3.73821456336e-07
9.65509438205e-06
1.11065744089e-05
-1.11814347682e-08
1.11136590622e-05
-2.2589210433e-08
1.11231583494e-05
-3.50943468159e-08
1.1134364403e-05
-4.91874988178e-08
1.11468117726e-05
-6.48675696431e-08
1.116012561e-05
-8.20868825736e-08
1.11739370507e-05
-1.0082344382e-07
1.11878482565e-05
-1.21040289134e-07
1.12013976557e-05
-1.4266784291e-07
1.12140289099e-05
-1.65593188523e-07
1.12250744285e-05
-1.89640166374e-07
1.12337587317e-05
-2.1454608517e-07
1.12392276332e-05
-2.3994237344e-07
1.12406096362e-05
-2.65344397747e-07
1.12371115051e-05
-2.90156093445e-07
1.12281401377e-05
-3.13693323815e-07
1.12134350939e-05
-3.35201336164e-07
-3.53610133306e-07
1.11932237708e-05
1.29551164706e-05
-1.45904991494e-08
1.29615001004e-05
-2.89728403897e-08
1.29700864408e-05
-4.36806874626e-08
1.29801771668e-05
-5.92782249923e-08
1.29912227859e-05
-7.59131888903e-08
1.3002747664e-05
-9.36117608574e-08
1.30142852742e-05
-1.12361054151e-07
1.30253469898e-05
-1.3210200497e-07
1.30354007883e-05
-1.52721641536e-07
1.3043857949e-05
-1.74050349412e-07
1.30500744887e-05
-1.95856706158e-07
1.30533708448e-05
-2.1784244137e-07
1.30530709313e-05
-2.39642460087e-07
1.304855958e-05
-2.60833046588e-07
1.3039353316e-05
-2.80949829593e-07
1.30251739714e-05
-2.99513979336e-07
1.30060144404e-05
-3.16041805239e-07
-3.29819706712e-07
1.29822240137e-05
1.5111354522e-05
-1.74273742802e-08
1.51166409192e-05
-3.42592377248e-08
1.51236991414e-05
-5.07389099032e-08
1.51318523617e-05
-6.74314454586e-08
1.51405009576e-05
-8.45617850132e-08
1.51490993954e-05
-1.02210198764e-07
1.51571190388e-05
-1.20380697755e-07
1.51640279445e-05
-1.390109108e-07
1.51692823177e-05
-1.57976014934e-07
1.51723271639e-05
-1.77095195812e-07
1.51726084322e-05
-1.96137974537e-07
1.51695973973e-05
-2.14831406636e-07
1.51628254112e-05
-2.32870474091e-07
1.51519250468e-05
-2.49932682353e-07
1.51366716383e-05
-2.65696421259e-07
1.51170177389e-05
-2.79860080059e-07
1.50931168605e-05
-2.92140926955e-07
-3.02075792348e-07
1.5065372946e-05
1.76265277785e-05
-1.9453366994e-08
1.76302714772e-05
-3.80029366534e-08
1.76351344077e-05
-5.56018406322e-08
1.76404717315e-05
-7.27687693748e-08
1.76456714406e-05
-8.97614943949e-08
1.76501653602e-05
-1.06704118562e-07
1.7653416633e-05
-1.23631970723e-07
1.76549114502e-05
-1.40505728117e-07
1.7654159425e-05
-1.57223989962e-07
1.76507011159e-05
-1.73636886902e-07
1.76441221084e-05
-1.89558967131e-07
1.76340726551e-05
-2.04781953569e-07
1.7620290351e-05
-2.19088170088e-07
1.76026222126e-05
-2.32264544156e-07
1.75810421073e-05
-2.44116316084e-07
1.75556599935e-05
-2.54477966422e-07
1.75267243057e-05
-2.63205239269e-07
-2.70006493879e-07
1.74946550071e-05
1.78271983102e-05
-2.04101264071e-08
1.78289258383e-05
-3.9730464931e-08
1.78309568061e-05
-5.76328086973e-08
1.78327527422e-05
-7.45647056915e-08
1.78337907927e-05
-9.07995450655e-08
1.78335945637e-05
-1.06507889802e-07
1.78317334712e-05
-1.21770878352e-07
1.78278196343e-05
-1.36591891478e-07
1.78215107531e-05
-1.50915108925e-07
1.78125167395e-05
-1.64642873491e-07
1.78006083271e-05
-1.77650554827e-07
1.77856267254e-05
-1.89800352036e-07
1.77674927569e-05
-2.00954201759e-07
1.77462134464e-05
-2.10985233853e-07
1.77218842589e-05
-2.19787128665e-07
1.76946861176e-05
-2.27279825295e-07
1.76648801863e-05
-2.33399308127e-07
-2.37956994285e-07
1.76328306866e-05
1.58815695106e-05
-2.06085721775e-08
1.58818602811e-05
-4.0021235649e-08
1.5881899548e-05
-5.76720758647e-08
1.58812557562e-05
-7.3920914087e-08
1.58795226777e-05
-8.90664667051e-08
1.58763564096e-05
-1.0334162193e-07
1.58714666671e-05
-1.16881135987e-07
1.58646103586e-05
-1.29735583138e-07
1.58555934231e-05
-1.41898173616e-07
1.58442737457e-05
-1.53323196271e-07
1.58305634988e-05
-1.63940308132e-07
1.5814431251e-05
-1.73668104324e-07
1.57959031269e-05
-1.82426077796e-07
1.57750619655e-05
-1.90144072602e-07
1.57520438633e-05
-1.96769026611e-07
1.57270321532e-05
-2.02268115325e-07
1.5700251653e-05
-2.06618808089e-07
-2.09691186038e-07
1.56719858446e-05
1.4148521516e-05
-2.04413873477e-08
1.4148142402e-05
-3.96421218736e-08
1.41472592245e-05
-5.67888985547e-08
1.41454642854e-05
-7.21259751654e-08
1.41424183008e-05
-8.60204822836e-08
1.41378748301e-05
-9.87981514806e-08
1.41316434203e-05
-1.10649726312e-07
1.41235784868e-05
-1.21670649802e-07
1.41135813021e-05
-1.31900989082e-07
1.41015992861e-05
-1.41341180382e-07
1.40876238558e-05
-1.49964878007e-07
1.40716887592e-05
-1.57733007884e-07
1.40538680482e-05
-1.64605366927e-07
1.40342728095e-05
-1.70548834056e-07
1.4013046461e-05
-1.75542678197e-07
1.39903589722e-05
-1.79580626654e-07
1.39664022817e-05
-1.82662117767e-07
-1.84693500567e-07
1.39414045961e-05
1.26047237449e-05
-2.01204174056e-08
1.26041544522e-05
-3.90728293613e-08
1.26030199273e-05
-5.56543738922e-08
1.26008527041e-05
-6.99587521277e-08
1.25973573275e-05
-8.25251058398e-08
1.25923670234e-05
-9.38078475609e-08
1.25857610909e-05
-1.04043793959e-07
1.25774590084e-05
-1.13368567534e-07
1.25674246599e-05
-1.218666407e-07
1.25556608664e-05
-1.29577386981e-07
1.25422040659e-05
-1.3650807771e-07
1.25271213284e-05
-1.42650270533e-07
1.25105075589e-05
-1.47991597549e-07
1.24924819295e-05
-1.52523204717e-07
1.24731836999e-05
-1.56244448759e-07
1.24527677052e-05
-1.59164632122e-07
1.24314014967e-05
-1.61295909395e-07
-1.62568603215e-07
1.24092765993e-05
1.12294127837e-05
-1.97183032257e-08
1.12289666162e-05
-3.86266621042e-08
1.12280015562e-05
-5.46893140286e-08
1.12259044026e-05
-6.78615986844e-08
1.12224414932e-05
-7.90621966726e-08
1.12175210994e-05
-8.88874539091e-08
1.12110682184e-05
-9.75909130601e-08
1.12030464462e-05
-1.05346795501e-07
1.11934628773e-05
-1.12283071981e-07
1.11823557113e-05
-1.18470221072e-07
1.11697872216e-05
-1.23939588147e-07
1.11558409539e-05
-1.28704002997e-07
1.11406189718e-05
-1.32769615556e-07
1.11242385638e-05
-1.36142796843e-07
1.1106828768e-05
-1.38834653117e-07
1.10885270898e-05
-1.40862954047e-07
1.10694781686e-05
-1.42246988329e-07
-1.42933326005e-07
1.10498428913e-05
1.0004086825e-05
-1.91800604176e-08
1.00040012122e-05
-3.8541049442e-08
1.00034726943e-05
-5.41607962621e-08
1.00016745145e-05
-6.60634190413e-08
9.99849716624e-06
-7.58848485836e-08
9.9939181338e-06
-8.4308421624e-08
9.9878898344e-06
-9.15626137961e-08
9.9804101408e-06
-9.78671020441e-08
9.97151781558e-06
-1.03390746892e-07
9.961272901e-06
-1.08225306621e-07
9.94975109837e-06
-1.12417785642e-07
9.93704236838e-06
-1.15995273131e-07
9.92324861342e-06
-1.18975860719e-07
9.90848095077e-06
-1.21375134322e-07
9.89285744207e-06
-1.23211144529e-07
9.8765018598e-06
-1.24507371901e-07
9.8595463076e-06
-1.25291436233e-07
-1.25527893702e-07
9.84214087517e-06
8.91225550577e-06
-1.83299473158e-08
8.91272835774e-06
-3.90139015734e-08
8.91274282286e-06
-5.41752615285e-08
8.91130629526e-06
-6.46268915979e-08
8.90851666787e-06
-7.30952213433e-08
8.90438441546e-06
-8.01761693581e-08
8.8988760021e-06
-8.60542005687e-08
8.89202425049e-06
-9.10153505614e-08
8.88389450984e-06
-9.5261006365e-08
8.87456064871e-06
-9.88914456118e-08
8.8641041511e-06
-1.01961288152e-07
8.85261482888e-06
-1.0450595102e-07
8.84018908043e-06
-1.06550112391e-07
8.8269274608e-06
-1.08113514808e-07
8.81293232392e-06
-1.0921600777e-07
8.79830622605e-06
-1.09881274147e-07
8.78315436386e-06
-1.1013957416e-07
-1.09964852758e-07
8.76759132282e-06
7.9392936057e-06
-1.69506911553e-08
7.94060857225e-06
-4.0328868266e-08
7.94107562714e-06
-5.46423165719e-08
7.93992417875e-06
-6.34754433422e-08
7.93754012711e-06
-7.0711169855e-08
7.933885769e-06
-7.65218113926e-08
7.92892139182e-06
-8.10898235154e-08
7.92270640356e-06
-8.48003624326e-08
7.91532247399e-06
-8.78770769051e-08
7.90685077379e-06
-9.04197455279e-08
7.89737550093e-06
-9.24860154093e-08
7.88698521024e-06
-9.41156604404e-08
7.87577132502e-06
-9.53362272938e-08
7.86382615387e-06
-9.61683437676e-08
7.85124119452e-06
-9.66310485299e-08
7.83810723047e-06
-9.67473102213e-08
7.82452448751e-06
-9.65568313091e-08
-9.60715600356e-08
7.81063119468e-06
7.07140283094e-06
-1.40193332062e-08
7.07421891281e-06
-4.31449502977e-08
7.07491447701e-06
-5.53378809139e-08
7.07384770451e-06
-6.24086709868e-08
7.07173179275e-06
-6.85952582391e-08
7.06843231066e-06
-7.32223294436e-08
7.06391849767e-06
-7.65760106435e-08
7.05826476091e-06
-7.91466258097e-08
7.05154769345e-06
-8.11600095621e-08
7.04384032415e-06
-8.2712376349e-08
7.03522030148e-06
-8.38659928545e-08
7.02577002981e-06
-8.46653888821e-08
7.01557417762e-06
-8.51403752284e-08
7.00471668253e-06
-8.53108487913e-08
6.99327638387e-06
-8.5190749987e-08
6.98132039443e-06
-8.47913208971e-08
6.96889702029e-06
-8.41334572884e-08
-8.32034445928e-08
6.95602890474e-06
6.29576365164e-06
-7.26846796159e-09
6.30142396066e-06
-4.88052594594e-08
6.30260742181e-06
-5.65213422037e-08
6.30191855432e-06
-6.17198036119e-08
6.3000418261e-06
-6.67185301677e-08
6.29678181452e-06
-6.99623179991e-08
6.29225791215e-06
-7.20521084024e-08
6.28663013384e-06
-7.35188476314e-08
6.2800034164e-06
-7.45332922348e-08
6.2724597531e-06
-7.5168713175e-08
6.26407770685e-06
-7.54839467226e-08
6.25493614718e-06
-7.55238293245e-08
6.24511434067e-06
-7.5318568836e-08
6.23469066875e-06
-7.48871769788e-08
6.22373928856e-06
-7.42393699099e-08
6.21232402069e-06
-7.33760531376e-08
6.20049750207e-06
-7.23069387852e-08
-7.10230081763e-08
6.18831706554e-06
5.59994513146e-06
7.68802446158e-09
5.6072444826e-06
-5.61046108019e-08
5.60798386669e-06
-5.72607264888e-08
5.60807170639e-06
-6.18076434529e-08
5.60677732245e-06
-6.54241463953e-08
5.60360835236e-06
-6.67933480677e-08
5.59877092103e-06
-6.72146772058e-08
5.59249994191e-06
-6.72478686784e-08
5.58496852268e-06
-6.7001873155e-08
5.57632081533e-06
-6.65210059655e-08
5.56668530156e-06
-6.58484330777e-08
5.55617934236e-06
-6.50178702391e-08
5.54491262649e-06
-6.40518531016e-08
5.53298891041e-06
-6.29634610257e-08
5.52050434461e-06
-6.17548042351e-08
5.50753591664e-06
-6.04076252838e-08
5.49409929067e-06
-5.88703129325e-08
-5.68874035103e-08
5.47996368589e-06
5.00788841697e-06
2.10800232945e-09
5.00214202214e-06
-5.03582162392e-08
4.99069119184e-06
-4.58098964238e-08
4.98011820084e-06
-5.12346526403e-08
4.96851029882e-06
-5.38162445714e-08
4.95550925933e-06
-5.37923087603e-08
4.94111005995e-06
-5.2815478003e-08
4.92534658039e-06
-5.148438932e-08
4.90831502636e-06
-4.99703192985e-08
4.89015324523e-06
-4.83592250007e-08
4.87101404187e-06
-4.67092298638e-08
4.85105255169e-06
-4.50563802038e-08
4.83042142098e-06
-4.34207225576e-08
4.80926914707e-06
-4.18111872682e-08
4.7877408782e-06
-4.02265354965e-08
4.76598153247e-06
-3.86482796847e-08
4.74412325058e-06
-3.70120311769e-08
-3.49551671469e-08
4.72219101409e-06
4.45865806031e-06
4.40829984404e-06
4.3624899476e-06
4.31125529494e-06
4.25743905035e-06
4.20364674157e-06
4.15083126354e-06
4.09934687419e-06
4.04937655487e-06
4.00101732984e-06
3.95430809995e-06
3.90925171972e-06
3.86583099713e-06
3.82401980983e-06
3.78379327431e-06
3.74514499459e-06
3.70813296338e-06
3.6731777962e-06
1.67161306828e-06
-1.67161307517e-06
2.06977847687e-06
-3.98165421302e-07
2.14722755268e-06
-7.74490846601e-08
2.16557043632e-06
-1.83428918839e-08
2.19215446955e-06
-2.65840415486e-08
2.21613711384e-06
-2.3982653462e-08
2.23436756151e-06
-1.8230457146e-08
2.24791425472e-06
-1.35467034885e-08
2.25797194772e-06
-1.00577033908e-08
2.26522755733e-06
-7.25562070287e-09
2.27015074616e-06
-4.9231998827e-09
2.27314097264e-06
-2.99023818678e-09
2.27454688345e-06
-1.40592237261e-09
2.27470472946e-06
-1.57858233255e-10
2.27388349019e-06
8.21227223857e-10
2.27223151127e-06
1.6519660714e-09
2.26983656338e-06
2.39493502613e-09
2.26674249809e-06
3.09405122814e-09
2.26293696633e-06
3.80551716218e-09
2.25834282966e-06
4.59412015653e-09
2.25280008435e-06
5.5427274567e-09
2.24605145662e-06
6.74860704284e-09
2.23770243545e-06
8.34899830893e-09
2.22710954548e-06
1.05928632507e-08
2.21318558058e-06
1.39239329792e-08
2.19397796203e-06
1.92075738874e-08
2.16541308278e-06
2.85648246621e-08
2.11740072421e-06
4.80122970977e-08
1.10360773478e-07
2.00703989841e-06
1.86427211975e-06
-1.8642721238e-06
2.47279291734e-06
-6.08520801767e-07
3.11915328041e-06
-6.46360368859e-07
2.17797683653e-06
-7.30436637077e-07
2.2356081333e-06
-4.55796725302e-07
2.37476631198e-06
-2.16607270525e-07
2.46371777362e-06
-1.07294360502e-07
2.52069976594e-06
-8.35660412302e-08
2.56615091804e-06
-6.94338133345e-08
2.60336997051e-06
-5.54495179097e-08
2.63412396789e-06
-4.43007095469e-08
2.65997190809e-06
-3.59056526307e-08
2.68194404223e-06
-2.92277641495e-08
2.70071187831e-06
-2.36910455158e-08
2.71676759801e-06
-1.90459676515e-08
2.73048591287e-06
-1.51242471543e-08
2.74210209233e-06
-1.1774047818e-08
2.75179004998e-06
-8.86674069174e-09
2.75973279198e-06
-6.29078649282e-09
2.76606739067e-06
-3.93967451908e-09
2.77089072067e-06
-1.72929023588e-09
2.7742962576e-06
3.99968080859e-10
2.77626634111e-06
2.62402332657e-09
2.77662199562e-06
5.18705831861e-09
2.77510254617e-06
8.26804002349e-09
2.77131393825e-06
1.21375878446e-08
2.76461549358e-06
1.72912870641e-08
2.75394524256e-06
2.45941585193e-08
2.73745315678e-06
3.56996255763e-08
2.71178336397e-06
5.4234573498e-08
2.67036704133e-06
8.94285736399e-08
1.65744797278e-07
2.61498297647e-06
1.9851115543e-06
-1.98511155328e-06
2.4759944457e-06
-4.90882892223e-07
2.87147882822e-06
-3.95484383709e-07
3.53606138817e-06
-6.64582563321e-07
2.54176935178e-06
-8.6998009084e-07
2.63942865408e-06
-7.06180108598e-07
2.65703953828e-06
-6.63971256884e-07
2.5590025375e-06
-6.32399642597e-07
2.58058342628e-06
-4.77377621584e-07
2.66621857877e-06
-3.02242429606e-07
2.7479979373e-06
-1.89073725557e-07
2.80642280881e-06
-1.41990919322e-07
2.85286333611e-06
-1.15874347704e-07
2.89208114013e-06
-9.4667329227e-08
2.92556278309e-06
-7.77823602577e-08
2.95443749895e-06
-6.47803763624e-08
2.97959768477e-06
-5.43879582031e-08
3.00164821751e-06
-4.57415865161e-08
3.02101130363e-06
-3.84090623423e-08
3.03800196153e-06
-3.21149135789e-08
3.05285986311e-06
-2.66319582229e-08
3.06576240793e-06
-2.17692942954e-08
3.07683618005e-06
-1.73645677732e-08
3.08616485504e-06
-1.32683587464e-08
3.09377114515e-06
-9.33559025123e-09
3.09958288131e-06
-5.41177839682e-09
3.10356912303e-06
-1.36222989133e-09
3.10571337177e-06
3.04279717244e-09
3.10584157925e-06
8.13981836166e-09
3.10362381721e-06
1.43553343458e-08
3.09853186051e-06
2.23832257975e-08
3.08974139178e-06
3.33846057615e-08
3.07597355169e-06
4.9467435858e-08
3.05541642793e-06
7.47916597382e-08
3.02657196433e-06
1.18272997396e-07
1.96296403573e-07
2.99602032352e-06
2.16117022379e-06
-2.16117022868e-06
2.70704846784e-06
-5.45878247469e-07
3.14562937189e-06
-4.38580905205e-07
3.86124224902e-06
-7.15612877869e-07
2.74677174285e-06
-8.70641047249e-07
2.89223825827e-06
-6.36349408453e-07
3.05916634557e-06
-5.6241247295e-07
3.06263020579e-06
-6.68046425935e-07
2.94990653976e-06
-7.57256429236e-07
2.95420319659e-06
-7.10476769819e-07
2.95115172168e-06
-6.60919787496e-07
2.91633575803e-06
-5.97583684545e-07
2.92532649009e-06
-4.8636835954e-07
2.97794177356e-06
-3.54857718672e-07
3.04134951082e-06
-2.52481468376e-07
3.09386913006e-06
-1.94510544354e-07
3.13683352827e-06
-1.5883875202e-07
3.17346768129e-06
-1.31301488717e-07
3.20492216612e-06
-1.09236851839e-07
3.23196533864e-06
-9.18235559127e-08
3.25534850499e-06
-7.7771131772e-08
3.27566346399e-06
-6.60565529444e-08
3.29334087554e-06
-5.60864814476e-08
3.30870356092e-06
-4.7477606678e-08
3.32199936109e-06
-3.99277662108e-08
3.33341562867e-06
-3.31855698584e-08
3.34308821638e-06
-2.70371636176e-08
3.35110833596e-06
-2.12884867321e-08
3.3575227835e-06
-1.57500465757e-08
3.36233058387e-06
-1.02195881106e-08
3.36544203201e-06
-4.47368817605e-09
3.36677862614e-06
1.70619189549e-09
3.36624439213e-06
8.6740399462e-09
3.36357827694e-06
1.70214357676e-08
3.35837319513e-06
2.75882920751e-08
3.35005274454e-06
4.17050374889e-08
3.3378762944e-06
6.16438602096e-08
3.32121348172e-06
9.14544390098e-08
3.30086472826e-06
1.38621716104e-07
2.13673660228e-07
3.28348744093e-06
2.32014313626e-06
-2.32014313656e-06
2.91774353657e-06
-5.97600402411e-07
3.39945579534e-06
-4.81712261859e-07
4.17717609194e-06
-7.77720301292e-07
2.96745133716e-06
-9.51445477431e-07
3.12200813465e-06
-7.00435047912e-07
3.29656367053e-06
-6.13136442993e-07
3.28830240693e-06
-7.07351614436e-07
3.18214015941e-06
-7.64478800764e-07
3.23434067647e-06
-6.88549927044e-07
3.3222367869e-06
-6.50308585414e-07
3.33732120276e-06
-6.83130845802e-07
3.29406731924e-06
-7.14002550004e-07
3.27667884148e-06
-6.93088296614e-07
3.26370722816e-06
-6.4794817774e-07
3.24848892882e-06
-5.82365390621e-07
3.25448981472e-06
-4.9236925114e-07
3.2877307928e-06
-3.88098702158e-07
3.33358745951e-06
-2.98338140344e-07
3.37622738269e-06
-2.37150472879e-07
3.4126954179e-06
-1.95306792812e-07
3.44426461008e-06
-1.62870686702e-07
3.47162111637e-06
-1.36593364181e-07
3.495180802e-06
-1.15383247762e-07
3.51544476553e-06
-9.80351017263e-08
3.53288185813e-06
-8.34936520717e-08
3.54785963237e-06
-7.10642623888e-08
3.56066103866e-06
-6.02790197337e-08
3.57150757017e-06
-5.07743046418e-08
3.58057062328e-06
-4.22486299447e-08
3.58797780221e-06
-3.44443497327e-08
3.59381755604e-06
-2.71282479123e-08
3.59814057398e-06
-2.00730722731e-08
3.60095877778e-06
-1.30378001145e-08
3.60223818166e-06
-5.75310102456e-09
3.60191507618e-06
2.02928751905e-09
3.59987779421e-06
1.07113109054e-08
3.59592685408e-06
2.09723636853e-08
3.58977632196e-06
3.37388103561e-08
3.58107327123e-06
5.04080713165e-08
3.56949730581e-06
7.32198020757e-08
3.55515060548e-06
1.05801108695e-07
3.5397259272e-06
1.54046362319e-07
2.24326142766e-07
3.5290734166e-06
2.46897252868e-06
-2.46897253151e-06
3.1142932581e-06
-6.45320731224e-07
3.63449439357e-06
-5.20201135684e-07
4.46821664911e-06
-8.33722256234e-07
3.17674019783e-06
-1.02866668598e-06
3.34405308239e-06
-7.64913288921e-07
3.53360584589e-06
-6.71265028881e-07
3.52679787904e-06
-7.70912337933e-07
3.40989473219e-06
-8.34542334778e-07
3.46220327601e-06
-7.52743594992e-07
3.55287360487e-06
-7.03806773567e-07
3.57012238202e-06
-7.24600393393e-07
3.54472174083e-06
-7.39078160666e-07
3.56703999719e-06
-7.10868184902e-07
3.60747231945e-06
-6.90740910144e-07
3.61862379324e-06
-6.94282322382e-07
3.60080544028e-06
-6.96184201644e-07
3.58384222008e-06
-6.76125080549e-07
3.56885934135e-06
-6.32965303779e-07
3.55868307819e-06
-5.72189131946e-07
3.56168019991e-06
-4.9536637757e-07
3.58237500877e-06
-4.0879351569e-07
3.6140122821e-06
-3.29975418268e-07
3.64635838254e-06
-2.69496578055e-07
3.67550616023e-06
-2.24454575427e-07
3.7013197773e-06
-1.88684308931e-07
3.72398080839e-06
-1.59254400653e-07
3.74359413085e-06
-1.34996575807e-07
3.76040164195e-06
-1.14842618599e-07
3.7747096815e-06
-9.78016975476e-08
3.78679401936e-06
-8.31486063186e-08
3.79688164486e-06
-7.03666514171e-08
3.80515793846e-06
-5.90506045556e-08
3.81177141496e-06
-4.88621128683e-08
3.81683602496e-06
-3.95089663264e-08
3.82043319618e-06
-3.07254259049e-08
3.82261265738e-06
-2.22525405902e-08
3.82339177903e-06
-1.38169293057e-08
3.8227754236e-06
-5.1367537932e-09
3.82072116161e-06
4.08354050951e-09
3.81711653175e-06
1.43159308106e-08
3.81181382281e-06
2.62750616021e-08
3.8046335374e-06
4.09190834347e-08
3.79540535455e-06
5.96362389673e-08
3.78410927277e-06
8.45158627298e-08
3.77126209861e-06
1.18648254866e-07
3.75880426559e-06
1.66504166021e-07
2.31551831358e-07
3.7515785513e-06
2.59997238248e-06
-2.59997238347e-06
3.19959845531e-06
-5.99626074362e-07
3.48631628086e-06
-2.86717827632e-07
3.91778853738e-06
-4.31472258715e-07
4.77013693664e-06
-8.52348402325e-07
3.39554548284e-06
-1.09438107993e-06
3.56891829635e-06
-8.18693546353e-07
3.7697525924e-06
-7.21035432789e-07
3.76451193216e-06
-8.28481596241e-07
3.63827356298e-06
-9.02428318048e-07
3.69307095569e-06
-8.19710683976e-07
3.78951220154e-06
-7.67706277843e-07
3.80799049106e-06
-7.89390632038e-07
3.77891788603e-06
-8.054697337e-07
3.80052037853e-06
-7.74346090483e-07
3.84374672206e-06
-7.47033119162e-07
3.86232926835e-06
-7.43182940378e-07
3.86280979171e-06
-7.39558685553e-07
3.87504257439e-06
-7.23100969565e-07
3.89199214141e-06
-7.07690479514e-07
3.89602184173e-06
-6.98312026789e-07
3.88532074962e-06
-6.85483113707e-07
3.87031504975e-06
-6.611193848e-07
3.85595386188e-06
-6.1860411903e-07
3.84641198918e-06
-5.62647263556e-07
3.84607012062e-06
-4.95024513601e-07
3.85789029236e-06
-4.20613691937e-07
3.87853763754e-06
-3.50622767911e-07
3.90158588709e-06
-2.92544832074e-07
3.9234978271e-06
-2.46366520036e-07
3.94341959689e-06
-2.08606083453e-07
3.96115856893e-06
-1.76993377597e-07
3.97660194574e-06
-1.5043995766e-07
3.98978898007e-06
-1.28029658105e-07
4.00087130945e-06
-1.08884032218e-07
4.01002394077e-06
-9.23012430467e-08
4.01740768952e-06