/*--------------------------------*- C++ -*----------------------------------*\
| =========                 |                                                 |
| \\      /  F ield         | OpenFOAM: The Open Source CFD Toolbox           |
|  \\    /   O peration     | Version:  2.3.1                                 |
|   \\  /    A nd           | Web:      www.OpenFOAM.org                      |
|    \\/     M anipulation  |                                                 |
\*---------------------------------------------------------------------------*/
FoamFile
{
    version     2.0;
    format      ascii;
    class       volVectorField;
    location    "500";
    object      U;
}
// * * * * * * * * * * * * * * * * * * * * * * * * * * * * * * * * * * * * * //

dimensions      [0 1 -1 0 0 0 0];

internalField   nonuniform List<vector> 
10011
(
(9.8406906305 -1.23875976093 -1.34362452756e-21)
(9.74371118123 -0.732081129914 -2.42238009758e-21)
(9.54931248142 -0.46832991984 -2.90604484155e-21)
(9.34610286054 -0.308921561186 -7.52954714579e-21)
(9.16129102617 -0.208089783246 1.53821971075e-21)
(8.99547779703 -0.142442742457 6.49779255008e-21)
(8.84748447379 -0.0986301828207 -3.34395485659e-20)
(8.7172382549 -0.0689315079903 0)
(8.60491583643 -0.048708083197 0)
(8.51087049035 -0.0350796730402 0)
(8.43596938436 -0.0262558016177 6.17777546959e-20)
(8.38199010626 -0.0211918249045 6.52649215795e-20)
(8.35219291235 -0.0194422363884 -6.58564396073e-20)
(8.35233554488 -0.0215642748894 -2.79906469524e-19)
(8.3967766539 -0.0298460242261 0)
(8.51597154273 -0.0512922944926 0)
(8.77216827966 -0.10192946166 -1.30456068102e-18)
(9.58380611685 0.228458476617 -2.65567250554e-18)
(10.0343803552 0.446593891176 -1.0036739147e-21)
(10.027538524 0.425129633064 3.21556673865e-21)
(10.0007359743 0.337406007476 1.13378110606e-21)
(9.96608700788 0.266992723813 4.81948170329e-21)
(9.93397600529 0.212444307649 -1.4910723683e-20)
(9.90407580198 0.17018466912 6.28435118256e-23)
(9.87623512842 0.137561435929 1.59443244559e-20)
(9.85185810887 0.111974457029 0)
(9.83276752367 0.0912178231119 0)
(9.82089954483 0.073534242674 9.25856977557e-20)
(9.81852277589 0.0574349632926 -1.43334127745e-19)
(9.82859591798 0.0414561523207 0)
(9.85525698027 0.0237290853305 0)
(9.90595723465 0.00105600692821 -2.12220921832e-19)
(9.9895825245 -0.0324291294355 0)
(10.1201186415 -0.0895874860532 -4.82071058476e-19)
(10.3116381925 -0.209974381454 1.44355921269e-18)
(10.5683908954 -0.531438497486 2.06947325457e-18)
(9.9937865801 0.0252381163948 1.30633882122e-21)
(10.0070343369 -0.0121886459137 -3.18723644021e-21)
(10.0297081643 -0.0330128664058 1.79054613861e-21)
(10.0466737504 -0.0301805956365 5.79016397367e-21)
(10.0630272117 -0.0215217338563 7.11754728585e-23)
(10.0800246565 -0.0134230002321 3.40060822842e-20)
(10.0979708872 -0.00723686724309 3.53372683588e-20)
(10.1180436286 -0.0034918154856 5.50028566585e-20)
(10.1417130776 -0.00253449748735 -1.86873522977e-20)
(10.1705158414 -0.0046808636428 -3.95396289436e-20)
(10.2062470871 -0.0104246004569 1.20385415404e-19)
(10.2512102475 -0.0207164703568 1.66364664002e-19)
(10.3087399384 -0.0374636750119 1.75253693356e-19)
(10.3823207416 -0.0641657838913 4.85669178789e-23)
(10.4767663642 -0.10754981649 5.58140332033e-19)
(10.5980933021 -0.181689621803 -3.71418135594e-19)
(10.7443930845 -0.31626597765 -7.78315274813e-19)
(10.8879554862 -0.552889062119 1.57645928663e-18)
(10.0009144262 0.0175069011343 0)
(10.0171673889 0.0386175517154 2.40936512835e-21)
(10.042563173 0.0481656230723 5.4522075252e-21)
(10.0627061557 0.0546248710309 -5.92397800885e-21)
(10.0825981617 0.0563173649725 2.86382299582e-20)
(10.1045264821 0.053675822254 -3.02316994089e-20)
(10.1287686866 0.0481520121623 -2.11017048815e-20)
(10.1560098672 0.0404716906372 -3.68292475628e-20)
(10.1872253377 0.0307012491299 3.03379594361e-20)
(10.2234769092 0.0184836062007 1.16515309834e-22)
(10.2660221628 0.00301450041685 -9.77194754896e-20)
(10.3164460885 -0.0171510014849 -6.79511254323e-20)
(10.3765675621 -0.0443595336334 0)
(10.4487100778 -0.0826320922839 -1.41647941195e-19)
(10.5350222403 -0.139137850125 -3.02340004571e-19)
(10.6353399544 -0.22652969672 -1.56273081979e-19)
(10.7397889224 -0.365816345419 6.49133801467e-19)
(10.8131631888 -0.579300760837 -1.33076847046e-18)
(10.0032834689 0.0157005332919 0)
(10.0192733032 0.0344044272227 5.09578734891e-22)
(10.0419455449 0.0366949922453 -5.44428229005e-22)
(10.061790219 0.0348827383196 7.15811301708e-21)
(10.082282656 0.0314237674337 -7.67290275321e-21)
(10.1052900941 0.0262029817076 -2.15934966309e-20)
(10.1309167149 0.0194530631624 2.27224632995e-20)
(10.1595719591 0.0110942734165 -4.76003817311e-20)
(10.1919872676 0.000652809791703 -2.52337437795e-20)
(10.2289818568 -0.0126446532944 5.17829135673e-20)
(10.2714781566 -0.0298998664008 8.10194098287e-20)
(10.320541586 -0.0527468742921 -1.1138842136e-19)
(10.3773125978 -0.0837760106663 0)
(10.4427212109 -0.127072724031 2.24185109258e-21)
(10.516607877 -0.189088986347 0)
(10.5954899175 -0.279528208107 2.55496767954e-19)
(10.6677776054 -0.410937583155 2.64095140221e-19)
(10.7050588513 -0.590003220904 -2.57007396312e-19)
(10.0035667511 0.0150499790533 0)
(10.0180538154 0.0288219163409 -4.65382457516e-21)
(10.0387038726 0.0303894860643 -7.87746264626e-21)
(10.0585088217 0.0284887817439 -7.27712606765e-21)
(10.0792177993 0.0251788074269 -4.40004530997e-21)
(10.102263277 0.0198852099924 2.29124510008e-20)
(10.1278127821 0.0124643931893 -4.80796373902e-20)
(10.1562002757 0.00275183703746 5.00729455112e-20)
(10.1880038763 -0.0097370541679 -6.28139611351e-20)
(10.2238604737 -0.02575785498 4.331287099e-20)
(10.2644101058 -0.0464463518576 2.31785473003e-20)
(10.310266688 -0.0734914417109 1.15410787033e-21)
(10.3618545555 -0.109390193956 9.67012095748e-20)
(10.4189899588 -0.157803391129 -4.64689891249e-20)
(10.4799903717 -0.223904072762 2.02126634594e-19)
(10.5399440988 -0.314289566435 -1.00536107299e-19)
(10.5882205326 -0.435299380784 2.13519248491e-19)
(10.6043450688 -0.585890130476 -1.06159821222e-19)
(10.0031761987 0.0117730461112 0)
(10.0159341617 0.0215984123626 3.44730781558e-21)
(10.0347888145 0.0228951324998 4.47555549116e-21)
(10.0541662633 0.0205246764882 -2.79099816432e-21)
(10.0746131748 0.0161784010028 9.62448834717e-21)
(10.0971979681 0.00953352610678 -4.03131957311e-21)
(10.1221393045 0.000439437704378 4.16123978167e-21)
(10.1496878489 -0.0112931970263 0)
(10.1802728908 -0.0261304731137 3.55387773275e-20)
(10.2143172009 -0.0448725245478 0)
(10.2521708018 -0.0686725594816 7.57231415781e-20)
(10.294022123 -0.0991550076852 -3.96716752378e-20)
(10.3396847663 -0.138575561166 3.90678419941e-20)
(10.3881798464 -0.18995393568 1.67562360447e-19)
(10.4370248096 -0.257042868651 -2.59232504791e-19)
(10.4811486435 -0.343764582958 2.63741797434e-19)
(10.5119941908 -0.452389252356 -1.81328030289e-19)
(10.5157425347 -0.578488089728 -1.76332865358e-19)
(10.002858788 0.00892301086195 9.04588103582e-22)
(10.0141848801 0.0161605388208 0)
(10.0314186557 0.016827006483 0)
(10.049990268 0.013718236828 8.09467858376e-21)
(10.0698440612 0.00831425467791 -1.67721837413e-20)
(10.0917286376 0.000488863674952 -4.37563580158e-21)
(10.1158278258 -0.0099443230417 2.24995982248e-20)
(10.1423091876 -0.0232264540314 -2.80031051244e-20)
(10.1714408582 -0.0398726075612 -1.93281503411e-20)
(10.2034624253 -0.0606810577657 -9.88707298824e-21)
(10.2384830669 -0.086761304636 -4.15440752168e-20)
(10.2763675635 -0.119601890264 2.15121477546e-20)
(10.316522886 -0.161135386552 -1.54310884266e-19)
(10.357541391 -0.213724661974 4.4712155119e-20)
(10.3966937432 -0.279940674952 0)
(10.4293136806 -0.361884032228 4.78492982218e-20)
(10.4487133685 -0.459661593488 -4.78103980124e-20)
(10.4452559366 -0.568019165452 1.45839022862e-19)
(10.0026086228 0.00651006307146 -8.57245965731e-22)
(10.0127359444 0.0115580275982 0)
(10.0284868223 0.0112655512239 0)
(10.046115039 0.00733588671199 -9.48649715566e-21)
(10.0652097262 0.000955980298817 9.74073181153e-21)
(10.0862486805 -0.0079399892681 0)
(10.1093655673 -0.0195617444189 4.15020144082e-21)
(10.1346349339 -0.0342045340859 -4.15243825919e-21)
(10.1621900896 -0.0523860673613 0)
(10.1921081932 -0.0748747406174 0)
(10.2242996049 -0.102698739305 -7.36419374556e-20)
(10.2583861527 -0.137170556689 0)
(10.2935092518 -0.179883829299 0)
(10.3280517091 -0.232612906009 -3.87865600601e-20)
(10.359311502 -0.297015063456 -1.20678644389e-19)
(10.3832153498 -0.373995389587 0)
(10.3946167729 -0.462543705194 0)
(10.386744728 -0.557528738394 4.09676613413e-20)
(10.0023549618 0.00405377591408 0)
(10.0112930595 0.00679234257258 0)
(10.0254606525 0.00524112835478 -4.49516548165e-21)
(10.0418779147 0.000302749065075 -2.75596235986e-21)
(10.0598988766 -0.00717827345448 0)
(10.0797572888 -0.0172473887532 3.7983827561e-21)
(10.1015073467 -0.0301456431325 7.8312369524e-21)
(10.1251310354 -0.0461940310824 1.20530363683e-20)
(10.150620965 -0.0658971589741 0)
(10.1778891571 -0.0899637528684 0)
(10.2066585495 -0.119297210979 6.81429667876e-20)
(10.2363485953 -0.154980895373 -3.45770875891e-20)
(10.2659235856 -0.198222301446 0)
(10.2937085013 -0.250203058252 7.27459126028e-20)
(10.3172301789 -0.311774488759 3.77523897366e-20)
(10.333172519 -0.382946734948 3.71715136444e-20)
(10.3378300896 -0.462109122196 -7.44182591696e-20)
(10.3267095557 -0.544640928261 3.56553963904e-20)
(10.0020890376 0.00153513888493 2.01793592898e-22)
(10.0098718616 0.00187604059089 -2.10682001377e-22)
(10.0224071123 -0.00117224815915 4.2897261701e-21)
(10.037373514 -0.00730853660446 2.62009142393e-21)
(10.0540031195 -0.0160167399824 0)
(10.0723108853 -0.0273586684113 -7.21242480017e-21)
(10.0922632071 -0.0415856990145 0)
(10.1137471771 -0.059029533378 0)
(10.1366204605 -0.0801591110805 7.45521872532e-21)
(10.1606427445 -0.105590477935 7.6331251167e-21)
(10.185380882 -0.136061210389 -4.6885890169e-20)
(10.2101156735 -0.172385971696 3.1873282144e-20)
(10.233741464 -0.215369985795 1.61522752419e-20)
(10.2546739713 -0.265648822288 1.6028775932e-20)
(10.2708209176 -0.323431325934 2.57020026089e-22)
(10.2796768357 -0.388149018938 3.28474932826e-20)
(10.2787743121 -0.458009809555 6.55847844724e-20)
(10.2652691019 -0.529127143015 -9.80633527023e-20)
(10.0018146201 -0.00101629571099 0)
(10.0084829437 -0.00310999565405 0)
(10.0193630758 -0.00785328810293 1.59909183049e-21)
(10.032668418 -0.0153537145034 -4.04967073444e-21)
(10.0475957994 -0.0253867887677 -8.30878261553e-22)
(10.0639855437 -0.0380441753075 1.6538438936e-21)
(10.0817064986 -0.0535787614932 0)
(10.1005539366 -0.0723115258426 6.78418696702e-21)
(10.1202680318 -0.0946508283683 -6.91061038332e-21)
(10.1404856449 -0.121090184987 -6.93329798872e-21)
(10.1606681826 -0.15217208662 1.41862032101e-20)
(10.1800383312 -0.18842824741 1.41266218253e-20)
(10.1975308967 -0.230286707353 1.4230337366e-20)
(10.2117738107 -0.27793407759 -1.47354082718e-20)
(10.2211372189 -0.331134637663 1.42263318102e-20)
(10.2238771947 -0.389031804634 -1.41483168166e-20)
(10.2184991353 -0.44993948042 -4.40490676912e-20)
(10.2032486848 -0.510765916811 1.40223078484e-20)
(10.0015360969 -0.00354711605137 -3.47433987836e-22)
(10.0071269268 -0.00805949514547 3.64558758993e-22)
(10.0163348763 -0.0146343633937 -3.6953710301e-22)
(10.0277922354 -0.023617349503 2.22178643334e-21)
(10.040725639 -0.0350098915744 -7.55020438799e-22)
(10.054847453 -0.0489458954387 1.50114158886e-21)
(10.0699321783 -0.0656681439692 0)
(10.0856948696 -0.0854632810831 -6.16091388933e-21)
(10.1017872967 -0.108656802281 0)
(10.1177674796 -0.135600442453 6.26249802739e-21)
(10.1330543206 -0.166632993429 -6.25077041855e-21)
(10.1468955302 -0.202020881094 -1.27474030394e-20)
(10.1583591213 -0.241879252661 -2.67987801884e-22)
(10.1663590829 -0.286075132213 0)
(10.1697341636 -0.33412466631 -2.5832725703e-20)
(10.1673796076 -0.38510914862 1.31303090659e-20)
(10.158498871 -0.437604019918 1.26486455103e-20)
(10.1419950421 -0.489252747365 -3.70539803904e-20)
(10.0012557059 -0.00598934731611 6.2905002833e-22)
(10.0057952782 -0.0128418837997 -3.27273925396e-22)
(10.0133130494 -0.0212863718419 -2.31202167765e-21)
(10.0227625798 -0.0317807267046 3.58487460182e-24)
(10.0334387857 -0.0444796667939 3.34448692087e-21)
(10.0449762904 -0.0595539696456 -1.3426156359e-21)
(10.0570750365 -0.0772238276711 -2.71917383596e-21)
(10.0693931592 -0.0977216061349 5.40035974762e-21)
(10.0815336605 -0.121276128647 2.72908895346e-21)
(10.0930288862 -0.148094842715 5.51902101892e-21)
(10.1033197539 -0.178329386233 -1.65123551144e-20)
(10.1117487775 -0.212028696279 1.09974496262e-20)
(10.1175756936 -0.24908537711 -1.10727798646e-20)
(10.1200196394 -0.289182189034 -1.11967543471e-20)
(10.118333231 -0.331750371532 1.10325133541e-20)
(10.111895092 -0.375954183445 -1.08186909145e-20)
(10.1003647512 -0.420681134579 0)
(10.0830039874 -0.464189580493 2.12953053001e-20)
(10.0009754533 -0.00825217412532 -2.81145118409e-22)
(10.0044822571 -0.017274206909 2.94152438854e-22)
(10.0102948572 -0.0274975013367 1.47345736095e-21)
(10.0176136901 -0.0394074457505 1.17672372126e-21)
(10.0258219067 -0.0532403279404 -2.9722925656e-21)
(10.0345242094 -0.0691850804054 5.92976962211e-22)
(10.0433793446 -0.0874285578722 1.19561143308e-21)
(10.0520225561 -0.108138122453 -6.00645576862e-21)
(10.0600534675 -0.131445641713 0)
(10.0670319857 -0.157431045658 0)
(10.072475056 -0.186098213389 4.26044623684e-23)
(10.075864419 -0.217346217632 -6.33499819499e-23)
(10.0766701932 -0.250942010604 9.75860445877e-21)
(10.0743896925 -0.286500964068 -1.44462871623e-20)
(10.0686006639 -0.323482284603 0)
(10.0590126923 -0.36120386784 -4.43908539545e-21)
(10.0455550424 -0.398849049651 1.86211241938e-20)
(10.0276628443 -0.435157711197 -2.73768393509e-20)
(10.0006985511 -0.0102198468227 0)
(10.0031939929 -0.0211215893532 2.57675071065e-22)
(10.007307416 -0.032882588262 0)
(10.0124340372 -0.045958930291 -1.55926539379e-21)
(10.0180542306 -0.0606086817445 -5.1441822049e-22)
(10.023783622 -0.0770159460322 0)
(10.0292791591 -0.0953279471176 -1.04068751351e-21)
(10.0341919831 -0.115648487148 5.18165113199e-21)
(10.0381612762 -0.138027207016 -1.4537782736e-23)
(10.0408172135 -0.162449381687 0)
(10.0417865644 -0.188823904879 2.04737064508e-21)
(10.0407049884 -0.216971594974 4.12052408899e-21)
(10.0372375197 -0.246617962917 5.67958524912e-23)
(10.0311049928 -0.277394154651 0)
(10.022114691 -0.30884864594 -3.98495321973e-21)
(10.0101809974 -0.340468730955 4.0750983445e-21)
(9.99537420476 -0.371684668829 -3.89590224208e-21)
(9.97719634479 -0.401598147171 7.64851982329e-21)
(10.0004283273 -0.0117467185532 -1.07450234725e-22)
(10.0019512574 -0.0240835872962 -2.82301424983e-22)
(10.0044209076 -0.0369632906363 3.36181129709e-22)
(10.0073914452 -0.0507755591021 0)
(10.0104420561 -0.0657587134234 9.03486941341e-22)
(10.0132296949 -0.0820747784677 -4.49016908043e-22)
(10.0154458135 -0.0998329025703 1.34409970533e-21)
(10.0167925077 -0.119087243277 -2.69707942253e-21)
(10.016981065 -0.13983265486 -3.56711171349e-21)
(10.0157372095 -0.162001912712 1.75833402681e-21)
(10.0128083592 -0.185463726033 -4.1024685954e-23)
(10.0079736649 -0.210022760545 0)
(10.0010567625 -0.235423676714 -3.47966995821e-21)
(9.99193928665 -0.261360498762 1.72373581813e-21)
(9.98057471699 -0.287491443166 6.91484085847e-21)
(9.96699112302 -0.313456533033 -3.36955234933e-21)
(9.95132139318 -0.338875178128 8.40360823981e-21)
(9.93308321781 -0.363114745227 0)
(10.0001991976 -0.0126631735034 1.0571369675e-22)
(10.000904511 -0.0258087742451 0)
(10.0019881551 -0.0392025114702 -9.92545272958e-25)
(10.0031232535 -0.0531526479783 -2.18990615168e-22)
(10.0039731496 -0.067861932595 2.17463177363e-22)
(10.0042474843 -0.0834700117169 8.74897597187e-22)
(10.0036918061 -0.100061768703 -8.7214517582e-22)
(10.0020757139 -0.117665842679 0)
(9.99919153423 -0.136255560097 1.7584040906e-21)
(9.99485833357 -0.155751657792 -2.60874965891e-21)
(9.9889272189 -0.176026037274 -1.7349217143e-21)
(9.9812870264 -0.196907350137 0)
(9.97187011911 -0.218189090558 0)
(9.9606572111 -0.239640219357 -5.02495472886e-21)
(9.94768202891 -0.261017676882 4.9505166911e-21)
(9.9330260949 -0.282078275968 1.61244933535e-21)
(9.91684309927 -0.302572011829 -2.16716811777e-23)
(9.89864916308 -0.322048723688 -4.68537276854e-21)
(10.0000460022 -0.0129996824003 -5.81477500108e-23)
(10.0001977756 -0.0263769296929 0)
(10.0003343872 -0.0397478617817 0)
(10.0001974212 -0.0533364095148 4.82644633834e-22)
(9.99949913965 -0.0673162645732 -7.24898920938e-22)
(9.99799105299 -0.0818205637931 -4.96624566274e-24)
(9.99547135786 -0.0969296078987 7.21378681661e-22)
(9.99177210878 -0.112669145864 -4.76261746889e-22)
(9.98675400577 -0.129015943571 4.8374466292e-22)
(9.98030864389 -0.145903320361 9.4484189001e-22)
(9.97236153874 -0.163226921365 0)
(9.96287408208 -0.180852018529 0)
(9.95184484207 -0.198622203662 0)
(9.93930982443 -0.216368883633 -2.71715954999e-21)
(9.92534308513 -0.233920905485 -1.22982886863e-23)
(9.91004862283 -0.2511123783 -4.44850787805e-21)
(9.89358490456 -0.267774563247 5.28183762614e-21)
(9.87546048713 -0.283574387858 1.70290179354e-21)
(9.99995541112 -0.0129914745556 -3.1543776244e-23)
(9.99978593572 -0.02628193996 3.31830678233e-23)
(9.9993776589 -0.0393440293594 -1.97031574444e-22)
(9.9984871338 -0.0523104870108 -2.64184365477e-22)
(9.99682884031 -0.0653485308736 0)
(9.99417961268 -0.0786083230761 -5.26611550687e-22)
(9.99038486519 -0.0921803694515 0)
(9.9853289142 -0.106100130097 0)
(9.97892490075 -0.120359866443 -5.16619969398e-22)
(9.97111739803 -0.134914513947 5.15701353636e-22)
(9.96188362495 -0.149687517838 1.01869129841e-21)
(9.95123232742 -0.164578726444 -2.02638271262e-21)
(9.93920241161 -0.179472907941 1.00752965338e-21)
(9.92586112188 -0.194247917018 1.00145979245e-21)
(9.91130313815 -0.208782117264 0)
(9.89564164394 -0.222959665545 -9.51949719195e-22)
(9.87903506722 -0.236662395509 1.92426331115e-21)
(9.86098354571 -0.249634245623 1.84737433906e-21)
(9.99990139708 -0.0128280343696 -5.48523180381e-26)
(9.99957963351 -0.0259286782038 1.25296331749e-22)
(9.99894896796 -0.0385761397168 1.07710063043e-22)
(9.99771168103 -0.0507967917827 0)
(9.99552782509 -0.0628002688706 0)
(9.99219308004 -0.0747823197929 2.84224793153e-22)
(9.98760232858 -0.0868499716709 0)
(9.98168384054 -0.0990537391642 -2.82363946976e-22)
(9.97439071629 -0.111407277364 0)
(9.96570783609 -0.123889778916 0)
(9.95565052511 -0.136451129683 5.54729442933e-22)
(9.94426039487 -0.149020701261 0)
(9.93160269713 -0.161515817703 0)
(9.91776395826 -0.173848933834 0)
(9.90285084311 -0.185933681661 0)
(9.88698134548 -0.197688804323 0)
(9.87031510886 -0.209030989883 1.04054354778e-21)
(9.85234774262 -0.219759918819 -1.02258022673e-21)
(9.99985000857 -0.0125977993222 -1.85251892119e-23)
(9.99949083607 -0.0255646530731 -3.84448561319e-23)
(9.99892070343 -0.0377972461761 3.86086559336e-23)
(9.99766750167 -0.0492013069389 -3.86706764914e-23)
(9.99526984166 -0.0601230863949 -7.72785872305e-23)
(9.99156237988 -0.0708314786087 -3.86971050698e-22)
(9.98650199604 -0.0814469171222 0)
(9.98005201732 -0.0920373862751 3.08886692905e-22)
(9.9721956288 -0.102640664795 -4.58676875944e-22)
(9.96295082625 -0.11325901609 1.52981570757e-22)
(9.95236334659 -0.12386524883 -9.11361383216e-22)
(9.9404992272 -0.134413295046 6.0009940858e-22)
(9.92744205966 -0.14484646469 -5.97527294177e-22)
(9.91329081128 -0.155103681748 0)
(9.89815877519 -0.165124602413 -2.91865210137e-22)
(9.88216487262 -0.17485274607 0)
(9.86546836132 -0.184229411003 0)
(9.84755413115 -0.193093680302 -1.10833478859e-21)
(9.99974545661 -0.0123170545032 9.88148993729e-24)
(9.99941178602 -0.0253670527004 4.14536212257e-23)
(9.99919110232 -0.0372528359716 0)
(9.99820874137 -0.0478179375038 0)
(9.99581596557 -0.057685819385 -4.16443742129e-23)
(9.9919487019 -0.0671916457234 2.92401643946e-22)
(9.98664342182 -0.0764588050773 -3.33357111628e-22)
(9.97988769132 -0.0855832833393 8.34956372281e-23)
(9.97168914604 -0.0946306124446 1.75582098016e-24)
(9.96209550326 -0.103621041615 1.66187564911e-22)
(9.95117719948 -0.11254294769 3.30934255276e-22)
(9.93901827524 -0.121367260184 -6.56379889994e-22)
(9.92571523566 -0.130055513279 1.90992302282e-24)
(9.91137548863 -0.138565347737 3.22542368684e-22)
(9.89611662674 -0.146855333713 2.74132082468e-24)
(9.88005851354 -0.15488843451 -3.1331595782e-22)
(9.86336596287 -0.162629298906 3.15958126139e-22)
(9.84552194583 -0.169956536391 6.15105283177e-22)
(9.99949911149 -0.0119375863519 -1.0571171696e-23)
(9.99919073451 -0.0254427238642 -1.1002992443e-23)
(9.99961919795 -0.0368657256751 2.2079708344e-23)
(9.99911061325 -0.0464165778023 5.55718018345e-23)
(9.99683369402 -0.055201699367 0)
(9.99293167628 -0.0635099527117 8.96811304341e-23)
(9.98751426168 -0.0714283313306 2.70454272393e-22)
(9.98057692741 -0.079098957901 9.00159608885e-23)
(9.9721557561 -0.0866289850109 1.80610424615e-22)
(9.96233089253 -0.0940623304974 -1.80206361205e-22)
(9.95119388424 -0.101405157305 1.79894799825e-22)
(9.93884143787 -0.108644468507 1.81265931143e-22)
(9.92537805945 -0.115756099327 5.38474261693e-22)
(9.91091499273 -0.122710305508 -5.34199728003e-22)
(9.89556896282 -0.129477042349 1.14481300224e-24)
(9.87945297406 -0.136030239042 3.52423743854e-22)
(9.86272535278 -0.142348708436 -1.74067536543e-22)
(9.8448232819 -0.148333601477 3.40694233263e-22)
(9.99904785504 -0.0114247746551 0)
(9.99875078484 -0.0267070883652 0)
(10.0002097235 -0.0376692977705 -8.87891825728e-26)
(10.0002214459 -0.0460819862667 -4.77226441883e-23)
(9.99803466089 -0.0539707930921 0)
(9.99416986441 -0.0614349900177 -9.74358304571e-23)
(9.98873971009 -0.0684333179194 -1.47271071604e-22)
(9.98170299053 -0.0750963590241 -4.93110175917e-23)
(9.97312217052 -0.0815283355469 4.95302172832e-23)
(9.96311036279 -0.0877750065214 2.00019432498e-22)
(9.95177814171 -0.0938553687511 -1.00822846435e-22)
(9.93923380659 -0.0997751030454 -7.9942453773e-25)
(9.92559018437 -0.105529446993 -2.00848779371e-22)
(9.91096362567 -0.111106558175 9.9682915647e-23)
(9.89547243106 -0.116492253532 9.97475555608e-23)
(9.87922805047 -0.121675957985 9.93935991863e-23)
(9.86240012778 -0.126662185717 3.95521083317e-22)
(9.84441632025 -0.131406483377 -5.86375434971e-22)
(9.99763000858 -0.00820092067911 1.46194897403e-24)
(9.99706195449 -0.0268555198573 -1.54441867731e-24)
(10.0002513185 -0.0371078928734 -1.90431412765e-23)
(10.0007276409 -0.0433322751712 1.9499820896e-23)
(9.99838202488 -0.0489041785125 0)
(9.99441252477 -0.0541515690007 0)
(9.98889439809 -0.0592125591606 8.27567312056e-23)
(9.98171883636 -0.0642592308143 -2.80365572484e-23)
(9.97295802826 -0.0693343677161 -5.67765123014e-23)
(9.96273754587 -0.0744103257188 0)
(9.95117088204 -0.0794495947304 0)
(9.93836915823 -0.0844171965182 0)
(9.92444974926 -0.0892795436123 1.74485003304e-22)
(9.90953294654 -0.0940044595775 -5.85692012977e-23)
(9.89373718932 -0.0985624731774 2.32761339756e-22)
(9.87716303095 -0.102929844805 -2.3390082339e-22)
(9.85995518568 -0.107102998271 0)
(9.84134716862 -0.111043977901 -1.14189784507e-22)
(9.99403543143 -0.00545864193611 -7.82106267587e-25)
(9.99223309781 -0.030424928803 8.53239724211e-25)
(9.99873639322 -0.0467248897273 0)
(10.0005633494 -0.0585719247795 -4.50147482927e-23)
(9.99832900677 -0.0671519780335 0)
(9.99401747491 -0.0728980898153 0)
(9.98782546361 -0.0769102856876 -1.64233274199e-23)
(9.97976167351 -0.0800331019077 5.02148547952e-23)
(9.97000618495 -0.0826987767335 -6.81041093409e-23)
(9.95873304343 -0.0851278877844 0)
(9.94607201765 -0.0874450292698 0)
(9.93214223635 -0.0897165215019 0)
(9.91706728002 -0.0919688967529 7.02142980659e-23)
(9.90097299309 -0.0942025458346 -7.04025495216e-23)
(9.88398326863 -0.0964003243276 -7.06885450617e-23)
(9.86620375571 -0.0985332344607 7.04273849849e-23)
(9.84780348957 -0.100583551227 0)
(9.82797265779 -0.10251114694 0)
(9.98450324126 0.00425307317943 0)
(9.9784062557 0.0215632605734 0)
(9.98576658962 0.0314114445859 0)
(9.98861343569 0.0252052442648 9.23302330009e-24)
(9.98745387505 0.0134756595048 4.81283756304e-24)
(9.9834034881 0.00149197986013 1.50539825673e-23)
(9.97632143008 -0.0096936180411 -1.0140086449e-23)
(9.96640094545 -0.0198820242966 -2.0845386293e-23)
(9.95404785478 -0.0289950885913 -1.04910099052e-23)
(9.93958952865 -0.0370620947854 -6.34996704623e-23)
(9.9232676059 -0.0441811320393 2.13513013453e-23)
(9.90529248813 -0.0504675985335 2.15430753868e-23)
(9.88586382429 -0.0560284959513 -6.43645524678e-23)
(9.86517195441 -0.0609533669468 8.61422743634e-23)
(9.84339737921 -0.065309135145 -8.56153571129e-23)
(9.82069086017 -0.0691318955975 -8.58207790725e-23)
(9.79725154394 -0.0724288269654 -2.02514892648e-25)
(9.77174467723 -0.0750659931226 -4.23203466356e-23)
(10.0130253027 -0.318260428254 -5.33019851507e-25)
(10.0067567489 -0.328185060154 7.03616894676e-25)
(9.99059038924 -0.274334788218 -2.15247321579e-24)
(9.96758959402 -0.228666616107 1.19795115064e-23)
(9.94444407678 -0.192941463721 -1.55104569556e-24)
(9.92010525181 -0.164651773729 -2.17507759557e-23)
(9.8929842709 -0.142658469215 -3.17335327235e-24)
(9.86286411133 -0.125765752389 0)
(9.83003458051 -0.112799298419 -1.27815501184e-23)
(9.79480473331 -0.102820244705 5.1309187839e-23)
(9.75746740272 -0.0951241296122 1.28323302873e-23)
(9.71832588867 -0.0891804260983 -9.01746547997e-23)
(9.67768915417 -0.0845843655707 -1.28223035561e-23)
(9.6358600552 -0.0810227980245 -3.84794591038e-23)
(9.59313333233 -0.0782459545849 7.69275219574e-23)
(9.54978493011 -0.0760350209824 1.02123644526e-22)
(9.5062430385 -0.074159074541 -1.01876759701e-22)
(9.46082287552 -0.0720349570454 8.88035369356e-23)
(9.9534318055 0.91294917426 7.16621012683e-25)
(9.95058755478 0.560529489422 4.27452460058e-25)
(9.85785531083 0.374604386328 3.23753117685e-24)
(9.73764258726 0.257353426461 0)
(9.61498522117 0.178931673518 0)
(9.49362276442 0.124974111362 0)
(9.3738926195 0.0867964054155 0)
(9.25666909287 0.0591743205329 0)
(9.14268000874 0.0388713546329 1.58976267217e-23)
(9.03226916934 0.0237699974701 0)
(8.92555621355 0.0124293111197 4.00656879303e-24)
(8.82256502556 0.00384558755547 2.02713240789e-23)
(8.72327124124 -0.00269226913697 8.14982736701e-24)
(8.62762209657 -0.00769467741712 8.10001862207e-24)
(8.53555759408 -0.0115299166762 -3.27193707878e-23)
(8.44701661786 -0.0144585663649 -4.08641129153e-23)
(8.36226462389 -0.0166206079071 0)
(8.2783123618 -0.0179433252383 -1.62907436178e-23)
(2.25141125777 -0.302354279049 -3.43685806419e-16)
(2.08833568239 -0.199251517544 0)
(2.03859026179 0.0476385511396 -4.3991700611e-18)
(2.14316226228 0.0510638869852 0)
(2.22021250311 0.0392968129639 0)
(2.25358850041 0.0292880330358 -3.1707346213e-18)
(2.27402459088 0.0229406469507 1.57223821813e-18)
(2.29247103471 0.0183694163414 0)
(2.30842035019 0.014799080973 0)
(2.32110489824 0.0120171368102 2.53581944913e-19)
(2.3310388873 0.00986066194178 -2.5284803466e-19)
(2.33890236321 0.00817380161621 -1.25342748336e-19)
(2.3451284731 0.00683479488886 1.25144380056e-19)
(2.34999640315 0.00574116431452 0)
(2.35386182844 0.00482592791912 0)
(2.35687819201 0.00407029384594 -5.2558171413e-19)
(2.35914955474 0.00345751447785 1.54635961266e-20)
(2.36073834833 0.00297120151817 1.54012956086e-20)
(2.36165378353 0.00260444145246 -4.83918026774e-19)
(2.36184901666 0.00235893214641 4.83317311886e-19)
(2.36119593846 0.00223829517847 0)
(2.35947356528 0.00224748693583 -1.9158525178e-21)
(2.35634286564 0.00240771930136 9.83660455273e-19)
(2.35127411118 0.00277549826005 9.8427433704e-19)
(2.34338939593 0.00346287315092 -1.44478428064e-21)
(2.33121101476 0.00469632568091 7.25948586134e-22)
(2.31151777948 0.00707528077175 9.98895381295e-19)
(2.28133152632 0.012157154883 0)
(2.18329960553 0.031246290562 1.26660442057e-22)
(2.52181748925 -0.375092542837 1.50358529212e-16)
(2.4465355928 -0.372016680183 4.48110636361e-17)
(2.38972796402 -0.352948589461 -7.93155987844e-17)
(2.38399063347 -0.320871249845 1.56839543152e-16)
(2.35589541939 -0.289319914083 -4.35344088404e-19)
(2.36447506205 -0.139024852521 3.84391798886e-18)
(2.45989309064 -0.0792917215017 0)
(2.54709072067 -0.0620453259052 3.58337248728e-18)
(2.60249500421 -0.0509235686943 -2.64521405049e-18)
(2.64366989254 -0.0405061310464 4.30325417252e-19)
(2.68019179473 -0.0322249015887 -8.46380866149e-19)
(2.71287090062 -0.026002311167 0)
(2.74151061662 -0.0211586032909 0)
(2.7666899934 -0.0172691639266 -2.03040711611e-19)
(2.78908990625 -0.0141193030056 1.01035077843e-19)
(2.80915806692 -0.0115639377043 -6.96472360075e-19)
(2.82718055436 -0.00949473725466 7.88636885595e-19)
(2.84325785195 -0.00780893620497 4.8797659724e-20)
(2.8575773965 -0.00640712652077 3.63210782406e-19)
(2.87028998516 -0.00521312090821 -2.40532925466e-20)
(2.88149117198 -0.00417002677408 1.19186340492e-20)
(2.89125088202 -0.00323258243452 3.73145614954e-19)
(2.89967356327 -0.00232639486452 -3.8238338313e-19)
(2.9065990552 -0.00134912242335 0)
(2.91179303853 -0.000219954277352 0)
(2.91491353173 0.00116243959456 -7.40348825612e-19)
(2.91543227033 0.00297949841142 -2.21250830105e-18)
(2.91248387747 0.00554907698555 7.17720706607e-22)
(2.90465708004 0.00948218937443 0)
(2.88908064935 0.0161736170307 -2.20101986867e-18)
(2.86439654127 0.0294725189449 8.98907665785e-23)
(2.79514803336 0.0628445923943 -1.46037542384e-18)
(2.79406519301 -0.42370039611 0)
(2.72418534195 -0.426182389972 0)
(2.66744802209 -0.41132044773 7.52150001997e-17)
(2.62630188304 -0.408205614727 -6.26078846691e-17)
(2.63749275269 -0.388388238178 -6.68429884405e-17)
(2.66265269881 -0.367705653023 5.96717305704e-18)
(2.66728588957 -0.344526723722 -5.91439426781e-18)
(2.67397438022 -0.304576658034 0)
(2.67649517678 -0.251631709931 -9.07392716741e-18)
(2.69915158501 -0.146487242219 6.31107104968e-18)
(2.76778391788 -0.0847359197837 0)
(2.84044194761 -0.0619274802295 7.7220427093e-19)
(2.89519647158 -0.0499038776349 -7.5575571511e-19)
(2.93867114278 -0.0404250368537 0)
(2.97762501795 -0.0334080690549 7.32456870566e-19)
(3.01321940812 -0.0284697945122 1.43891093731e-18)
(3.04532429219 -0.0247845665213 7.07176859507e-19)