/*--------------------------------*- C++ -*----------------------------------*\
| =========                 |                                                 |
| \\      /  F ield         | OpenFOAM: The Open Source CFD Toolbox           |
|  \\    /   O peration     | Version:  2.3.1                                 |
|   \\  /    A nd           | Web:      www.OpenFOAM.org                      |
|    \\/     M anipulation  |                                                 |
\*---------------------------------------------------------------------------*/
FoamFile
{
    version     2.0;
    format      ascii;
    class       volScalarField;
    location    "526";
    object      epsilon;
}
// * * * * * * * * * * * * * * * * * * * * * * * * * * * * * * * * * * * * * //

dimensions      [0 2 -3 0 0 0 0];

internalField   nonuniform List<scalar> 
10011
(
1739.51971626
3022.1654528
4034.82821199
4725.13738448
5151.76441953
5390.57115773
5505.66666236
5544.29448182
5539.12426702
5512.19945216
5478.57663144
5449.20622019
5433.23101255
5440.00819577
5471.51521952
5531.89155299
5622.86831443
6605.05745216
187.180265822
344.286875161
469.488017531
568.684441179
639.785224357
686.396580416
714.724809435
730.480361008
738.019742581
740.384072901
739.54300883
736.619677966
731.988547145
723.677408443
713.940049824
703.551748064
683.030035944
649.102894102
41.8147806327
72.303100876
98.0055552406
119.504001417
136.686643553
149.679647856
159.003327506
165.297842841
169.168798355
171.122882406
171.535078059
170.625560171
168.131642628
164.806100363
161.132678472
156.610638354
150.317853021
141.369442197
20.3485448091
27.913394041
35.2743439398
41.920431741
47.6674450424
52.4516240113
56.3035437413
59.3002869874
61.5330330031
63.0879292335
64.0117013968
64.3098398595
64.2808589712
63.9530909133
63.3396856533
62.4221255121
61.1664580174
59.5558787705
16.0512987076
18.1891531284
20.6081969403
23.0119057347
25.2547579254
27.2613944861
29.0014715412
30.4703368325
31.6749348041
32.613381723
33.3190203414
33.847338555
34.2212445644
34.4606707892
34.5857371489
34.6209060441
34.5920310516
34.4638288208
15.0109722338
15.5370277352
16.2889445146
17.1443758302
18.0211884584
18.8664609637
19.6486570577
20.3502625189
20.9567832424
21.4798850685
21.9270987544
22.3056542135
22.6248193394
22.8964278695
23.1361580336
23.364287125
23.5970256369
23.7933116209
14.7573959982
14.7792350857
14.914670282
15.1333598873
15.404041902
15.7000008107
16.0003920983
16.2900156422
16.5656189102
16.8229992015
17.0613673241
17.2825032549
17.4907217667
17.693103728
17.8996180595
18.1219161412
18.3651207556
18.5934369821
14.7057978452
14.5996747119
14.549139495
14.5494723869
14.5910375678
14.6624676572
14.7531063042
14.8557784115
14.9650190184
15.0773240722
15.1911633147
15.3069286996
15.4269586445
15.5555434696
15.6985766894
15.8620120543
16.0457797964
16.2211616963
14.6919255174
14.545318028
14.4267740039
14.3372859706
14.2752582684
14.2372627909
14.2196402099
14.2186802455
14.231399608
14.2557650876
14.29085628
14.3369838608
14.3957479059
14.4699435531
14.5630636675
14.67784606
14.8119005253
14.9420090578
14.6879437374
14.5281762583
14.3844155266
14.2575015154
14.1477165083
14.0548196238
13.9780301829
13.916385133
13.8690515105
13.8355453553
13.8159030385
13.8108033992
13.8215960537
13.8501488712
13.8983537253
13.966976717
14.0527441389
14.1377932168
14.6869065702
14.5234628108
14.3719182396
14.2322881942
14.1046927133
13.9892670102
13.8860694617
13.7951513262
13.7166651025
13.6509533543
13.598620848
13.5605730593
13.5379758059
13.5320724189
13.5437745934
13.5728749247
13.6162341636
13.6608438243
14.686646539
14.5221934898
14.3684456067
14.2250563534
14.0918182634
13.9686814881
13.8556945807
13.753014363
13.6609413605
13.5799413287
13.5106487174
13.4538406564
13.4103536776
13.3809103674
13.3658254187
13.364526339
13.3744849488
13.3866502059
14.6866145502
14.5217932227
14.3672573187
14.222581585
14.0874253217
13.9615873988
13.8449842822
13.7376500612
13.6397490221
13.5515749035
13.4735300089
13.4060787117
13.3496637519
13.3045748558
13.2707658032
13.247591218
13.2332016907
13.2214964757
14.6866917276
14.5216732618
14.3666780642
14.2212697197
14.0850638386
13.957778687
13.8392305634
13.7293302751
13.6280838986
13.5355836851
13.4519830425
13.3774535617
13.3121216468
13.2559848069
13.2088118072
13.1700093806
13.1382947243
13.1096435107
14.6868416778
14.5217060905
14.3663698524
14.2203810878
14.0833290812
13.9548795187
13.8347756862
13.722833531
13.6189360718
13.5230212985
13.4350600721
13.3550237903
13.2828429425
13.2183594773
13.1612772613
13.1110975901
13.0669582949
13.0262599703
14.6870306936
14.5218322252
14.3662382451
14.2197694361
14.081987775
13.9525173547
13.8310458944
13.7173193773
13.6111341023
13.5123246156
13.4207462824
13.3362530566
13.2586722248
13.1877787098
13.1232716263
13.0647437266
13.0116252805
12.9622893163
14.6872133086
14.5219840323
14.3661992707
14.2193469528
14.0809610457
13.9506323398
13.8280081193
13.7127863552
13.604707349
13.5035428707
13.4090827263
13.3211195513
13.2394332636
13.1637767583
13.0938644276
13.0293580099
12.9698788518
12.9144594882
14.687333563
14.5220792206
14.3661522956
14.2190117261
14.0801687344
13.9491913226
13.8257013601
13.7093681449
13.5999002554
13.4970358175
13.4005315896
13.3101517285
13.2256572289
13.1467968492
13.0733006647
13.0048738084
12.9412510889
12.8818797487
14.6873731659
14.5220854713
14.3660474763
14.2186979229
14.079535198
13.9481161734
13.8240502028
13.7069923697
13.5966357353
13.4927022097
13.3949329565
13.3030792709
13.2168945359
13.1361276072
13.0605186547
12.9897968758
12.9237604937
12.8621000382
14.6873622098
14.5220360099
14.3659054317
14.2183988507
14.0790142581
13.9473091108
13.8228915036
13.7054143415
13.5945678901
13.4900706025
13.3916602029
13.2990858048
13.2121011906
13.1304593422
13.0539092703
12.98219558
12.9151535706
12.8526154382
14.6873340173
14.5219783966
14.3657877376
14.2182045838
14.0787571764
13.9470322552
13.8226648665
13.705333886
13.5947528449
13.4906591577
13.3928051105
13.3009505375
13.214856773
13.1342819046
13.0589783854
12.9886937226
12.9232742559
12.8626106244
14.6873315349
14.5220595499
14.3660899171
14.2190063325
14.0804961102
13.9502847873
13.828121419
13.7137709183
13.6070007263
13.5075706781
13.4152281431
13.3297056627
13.2507198598
13.1779714782
13.1111473385
13.0499242396
12.9940761473
12.9433812152
14.687603677
14.523466665
14.370126786
14.2278626289
14.0968888828
13.9772282433
13.8687196478
13.7710464983
13.6837651018
13.6063389628
13.5381726359
13.4786387237
13.42709769
13.382912058
13.3454571408
13.3141280228
13.2884384102
13.2677497798
14.6903437868
14.535695958
14.4013917004
14.2891582117
14.1991807038
14.1304080262
14.081052465
14.0489918082
14.0320287849
14.0280493974
14.035109097
14.0514674865
14.0755920015
14.1061457594
14.1419694407
14.1820585353
14.2256200578
14.271378513
14.7129874643
14.6219970752
14.5934652712
14.6223617327
14.6992715181
14.8136638619
14.9558278228
15.1176540313
15.2926862072
15.4759184113
15.6635381109
15.8526763234
16.0411910385
16.2274925291
16.410409233
16.5890824162
16.7629633005
16.930580491
14.8729304382
15.1283329102
15.5598231872
16.1027045075
16.7087207615
17.3436310651
17.9847345421
18.6176860035
19.2335667891
19.8269574784
20.3947479873
20.9353608027
21.4482284588
21.9334405351
22.3915044918
22.8231779806
23.2294760772
23.6099620569
15.8787571953
17.7247615609
19.8405924883
22.0042636894
24.1254354785
26.1579162144
28.0792363305
29.8801010099
31.5578046636
33.1133680727
34.5502584423
35.8735596505
37.0893411061
38.2041711769
39.2247284463
40.157464473
41.0085799216
41.7825141245
22.1640426805
31.1460483608
39.4583724514
47.1939294436
54.4155684863
61.0936982501
67.2120275687
72.7701255053
77.7776032277
82.2543294819
86.2296126291
89.7395342404
92.8238942177
95.5235017851
97.8778490923
99.9227479481
101.687495799
103.18646482
68.073299709
115.223093821
155.523060754
193.083469481
228.00265617
259.58442641
287.481845194
311.634432513
332.17255094
349.362423103
363.551471744
375.118787847
384.439185205
391.860780689
397.69203619
402.192061384
405.550739452
407.808167999
723.169781516
1065.3818754
1375.37498659
1653.97202618
1910.21857708
2136.98482202
2330.82643579
2491.30355509
2620.06421575
2719.98553073
2794.52176032
2847.26189108
2881.65438576
2900.85441263
2907.65575978
2904.47567528
2893.39994803
2875.93313953
113.599472122
41.9137080838
52.0707829306
46.2889200627
45.7873432807
45.4978551351
45.3927402211
45.4500826621
45.6339651379
45.908816916
46.2477544116
46.6319531177
47.0480894138
47.4864522197
47.935892435
48.395447324
48.8657790999
49.3475039786
49.8409539226
50.3459401916
50.8613161021
51.3844741353
51.9106800028
52.4320015715
52.9353031362
53.3989441189
53.7825744172
54.0370969508
53.7231920744
138.82040375
66.1142713728
43.7391563785
33.1591062102
25.404036463
21.6018018646
18.9574530322
17.023705139
15.6606569183
14.718411369
14.0782407473
13.6650261076
13.4295727396
13.3366210068
13.3600135555
13.4802139325
13.6825373367
13.962093451
14.3074383251
14.7087513076
15.158564533
15.6508021209
16.1792929648
16.7418691441
17.337157952
17.9645454037
18.6252435958
19.324272765
20.0760472026
20.9233999402
22.0108563025
24.0196359362
169.720812708
88.6135748219
66.0388878115
47.0847858683
36.0347330439
27.5275125292
22.1145422979
18.6185330011
16.5613449033
15.2924862507
14.2059177663
13.2609805713
12.498945335
11.9005074536
11.4326305527
11.0728141794
10.8058084779
10.619371706
10.5033149918
10.4493298973
10.4506666363
10.5022722836
10.5997867352
10.7393465868
10.9175302961
11.1316628552
11.3805592898
11.6615346453
11.9734849867
12.3166263464
12.6933234051
13.1100007088
13.5819753613
14.1468903316
14.900517922
16.1561072979
185.142734245
97.379047707
73.711063439
53.4078653676
41.5407761288
32.328335595
26.2513691871
21.8364157712
18.6697957698
16.4875237072
15.0004808536
14.0287029775
13.4695944984
13.1526931559
12.8344631883
12.4896805441
12.1720264505
11.8975642557
11.6612497492
11.4589450049
11.2889597305
11.1496934622
11.0393225297
10.9561619512
10.898787967
10.8660387452
10.8569620967
10.8707832089
10.9068941813
10.9649275438
11.0450652082
11.1476523154
11.2737945407
11.4248611134
11.6038248623
11.8167945886
12.0763744109
12.4094405615
12.8710717884
13.6003509344
199.178504965
105.175190561
80.4169038144
58.7595599431
45.9814674766
35.945966343
29.3016639949
24.4345330897
20.8915070591
18.3713519175
16.5215770852
15.1559185765
14.1635939649
13.4630555596
13.0076834116
12.7497572447
12.652084194
12.6407228151
12.5965639483
12.494731931
12.37112556
12.247508856
12.128312939
12.0151171188
11.9100620406
11.8146907006
11.7297256927
11.6554926472
11.5921874945
11.5399638399
11.4989779542
11.4694302785
11.4516053314
11.4459176418
11.4529528314
11.4740066687
11.5103303827
11.5640357756
11.6384770322
11.73941962
11.8772276788
12.0710803852
12.3529633963
12.7889335694
213.291595248
112.786794746
86.9028213534
63.9186214606
50.2721337508
39.4482508063
32.251035255
26.9334073611
23.0153985253
20.198667151
18.1141816945
16.5445881992
15.3587956755
14.4580760311
13.7804663963
13.2846033386
12.9318355271
12.694369514
12.5638515028
12.5254395024
12.5592213688
12.6246859009
12.6588790217
12.6413561559
12.5915991741
12.5274260139
12.4555742218
12.3792586532
12.3015073419
12.2247556124
12.15061491
12.0801741302
12.0142583468
11.9535419952
11.898613621
11.8500349575
11.8083986121
11.7743673552
11.7487291576
11.7327013556
11.7273581734
11.7349480161
11.7587698954
11.8040322485
11.8792094253
11.9981929182
12.179989751
12.4588091854
238.889712604
130.531042813
110.322844955
92.2557428848
69.2122579676
54.557949752
42.9087242487
35.1533930559
29.3805736988
25.0859710511
21.9806768852
19.675948277
17.924730367
16.584095693
15.5503920489
14.7528358446
14.1389298927
13.6612166809
13.2846884373
12.9963910611
12.7872723261
12.6426945587
12.5517808579
12.5137761407
12.523860356
12.5701296575
12.6283591427
12.6634862216
12.6603175776
12.6278280924
12.5781294939
12.517551693
12.4495578415
12.3771239672
12.3027349496
12.228196081
12.154811033
12.0835913411
12.0153707377
11.9508750544
11.8907844815
11.8357947073
11.7866304895
11.7442327785
11.7092980954
11.6831834552
11.668054037
11.6669958112
11.6846117398
11.7278050302
11.8067711424
11.9329840613
12.1259533028
258.272347358
141.582656003
120.414515423
101.497360781
76.9439075971
61.3564341606
49.0370478946
41.0053703339
34.9216394534
29.8959518771
25.928605609
22.9640801361
20.7055579824
18.9492213166
17.5755027985
16.4951914709
15.644175668
14.9713089412
14.4309006618
13.9883714251
13.6284308627
13.3383170952
13.1002966841
12.9013291387
12.7399219284
12.6160046537
12.5249013607
12.4626351204
12.4301862167
12.425962629
12.4425192597
12.4647483331
12.4722231996
12.4542112006
12.4140302966
12.35903002
12.2941087126
12.2222559503
12.1459534811
12.0673221264
11.9879961678
11.9092109966
11.8319500071
11.7570404279
11.6852156205
11.6171707772
11.5536143229
11.4952671951
11.4430838474
11.3972910168
11.3596503507
11.3321920795
11.3177400283
11.3203023771
11.3454768815
11.4008212618
11.4933387231
11.6353158736
277.667900407
152.953787221
130.538272211
110.568258844
84.3212904189
67.6612230305
54.3517507732
45.6453960959
39.0265889685
33.5320735558
29.1813993743
25.9349251595
23.4467742001
21.4433772865
19.7979737129
18.4580441205
17.3741565942
16.4996524639
15.7918054542
15.2095364023
14.720855908
14.3113195892
13.9679262855
13.6732351509
13.4137451612
13.1860112542
12.9874595456
12.8116267447
12.6537862754
12.5151460922
12.3977908042
12.3009738857
12.2234458391
12.1660279765
12.1278395342
12.1039218579
12.0846245662
12.0576058939
12.0154444683
11.958705069
11.8913884588
11.8168104415
11.7372206187
11.6544842613
11.5702289447
11.485767892
11.4021326881
11.3201653456
11.2405902876
11.1640650225
11.0912255696
11.0227088674
10.9592032697
10.9009771837
10.8491595438
10.8052006747
10.770943452
10.7488970006
10.7424753558
10.7561693008
10.7956071129
10.8651015082
10.9730565794
297.816509985
164.576065915
140.749984749
119.666642914
91.7279344904
74.0393759331
59.7632972209
50.3876956101
43.2212331526
37.2257146657
32.4352655633
28.8319620399
26.0676766726
23.8363135859
21.9917072062
20.4781691803
19.2437841317
18.2290717296
17.3824368311
16.667636889
16.0563364247
15.5273070071
15.0710766937
14.6771709697
14.3297950092
14.0162430046
13.7329679077
13.4769060301
13.2414861921
13.0214182714
12.8164335948
12.6268628757
12.4508336829
12.286869862
12.1364009328
12.0014281965
11.8824332668
11.77910914
11.6917907318
11.6196470221
11.5591713785
11.5040579701
11.4465795757
11.3815961624
11.308461187
11.2290529713
11.1453592436
11.0588887289
10.9709223369
10.8826054688
10.7949010358
10.7085938952
10.624342876
10.5427303516
10.4643007527
10.3895945932
10.3191397563
10.2536061187
10.1925952661
10.1379424667
10.0908863245
10.0530414795
10.0265631426
10.0142816406
10.0197431978
10.0471368825
10.0991418763
10.1818110096
320.238369496
177.18168096
151.633688802
129.243427011
99.4519381458
80.6879687159
65.4051021234
55.3444429634
47.6185826165
41.1061898659
35.8551724433
31.8743471146
28.818180693
26.3431240312
24.281858927
22.5762544977
21.1765067919
20.0218492803
19.0527863837
18.2268706588
17.513269609
16.8892592232
16.3416567912
15.8594110799
15.4294810805
15.0381626044
14.6762353955
14.3418943833
14.0330449419
13.7439722216
13.4697852956
13.2100574184
12.9647312862
12.731708263
12.509033671
12.2970957444
12.0967189596
11.9076561764
11.7296495324
11.5637815986
11.4114726711
11.2733248501
11.1492704939
11.039219968
10.9422496476
10.8557607439
10.7755099659
10.6964910266
10.615099723
10.5302665343
10.4426427714
10.3532621114
10.2630254689
10.1727374984
10.0831441371
9.99490045697
9.90856244651
9.82461292557
9.74349301392
9.66562897648
9.59144449157
9.52136228601
9.45517652893
9.39407587936
9.33901972131
9.29108364011
9.25166142294
9.22256388688
9.20609057429
9.20500620152
9.22242802058
9.26004901092
9.32232675625
350.442732047
195.7792644
172.831582568
160.885798666
140.252368174
108.330092105
87.9834384623
71.4163143769
60.5592509395
52.2034442697
45.1123941768
39.3531770991
34.9727304724
31.619205175
28.9005825819
26.623071374
24.7247403572
23.1581972685
21.8624446183
20.769185601
19.8297076422
19.0117829341
18.2930428483
17.6598858979
17.0989661975
16.5951901772
16.1338948064
15.7054044532
15.3066945452
14.9357322203
14.5875946671
14.2560432773
13.9373023608
13.6316320526
13.3394466324
13.059162732
12.7891148299
12.5295821875
12.281108715
12.0431803913
11.8151515186
11.597390806
11.390553573
11.1948022714
11.0102248569
10.8374810989
10.6773808334
10.5302808408
10.396045251
10.2743019672
10.1640778663
10.0633839011
9.96928136051
9.87843571667
9.78828430837
9.69771680379
9.60674651584
9.51580048826
9.42534605877
9.33584226433
9.24774066759
9.16146002986
9.07737364817
8.99581993251
8.91712095899
8.84159914692
8.7695661697
8.70136306941
8.63645232288
8.57650012631
8.52220473572
8.47444623347
8.43437093628
8.40344646733
8.38349442959
8.37663869264
8.38519574882
8.4102657999
8.45513477172
379.728428102
212.082803997
187.1866413
174.55040059
152.767789675
118.776401313
97.3114325083
79.8516798993
68.7136544722
60.4237576213
53.2644063306
46.732384328
41.2144614799
36.9275122304
33.5992150432
30.8623233726
28.5337361938
26.5636694663
24.9177675671
23.5440678321
22.3733311951
21.3549138278
20.4575596832
19.6611723412
18.9540607988
18.3222045831
17.7497391004
17.2223307061
16.7310664632
16.2731720513
15.8461004804
15.4444033397
15.061610145
14.6938750757
14.3409171097
14.0029374901
13.6783432027
13.3644959432
13.0598875987
12.7650159836
12.4806184785
12.2064621828
11.9420956355
11.6878217351
11.4440755283
11.2107851283
10.9877298678
10.7751026314
10.5732323422
10.3822488518
10.2022157644
10.0334296302
9.87621881347
9.73065996844
9.59649208223
9.47319581818
9.35983772024
9.25487888698
9.15624128118
9.06165666095
8.96929315489
8.87816640831
8.78801085694
8.69891425277
8.61107185986
8.52471793205
8.44010829023
8.35749882049
8.27713238162
8.19924129452
8.12405708589
8.05181295454
7.98272859081
7.91638640714
7.85393839279
7.79595231023
7.7430084497
7.69584051988
7.65538449666
7.62281286532
7.59954862906
7.58720944714
7.58751973252
7.60122651918
7.63072642286
413.172671341
231.493765162
206.193293806
198.539451371
189.990198639
167.327093915
130.165133031
106.899053286
87.896992813
75.8667003715
66.9209480225
59.1589616997
52.0369934055
46.0137840345
41.3807854281
37.8448041223
34.9533200299
32.4222964674
30.1659194054
28.1975832822
26.5209489053
25.1025851667
23.8793717047
22.801462851
21.839611309
20.9768883068
20.2043847197
19.5082198923
18.8718892976
18.2813890194
17.7286969246
17.2118150469
16.7281886799
16.2722753467
15.8378973392
15.421576477
15.0230782403
14.6423010934
14.2773637832
13.9254556004
13.5849104882
13.2558268571
12.9384791677
12.6323283018
12.3362154219
12.0494497451
11.7723051541
11.5051953695
11.2481522308
11.0010339294
10.7639731879
10.5371261211
10.3204320808
10.1137320201
9.91702927761
9.73038796223
9.55380023899
9.38722157799
9.23069243175
9.08424464007
8.94775842199
8.82089364119
8.70310078667
8.59355276064
8.49107000019
8.3941733807
8.30130136869
8.21115193648
8.12292398202
8.03627455751
7.95113222039
7.86754415501
7.78561451772
7.70548145914
7.62729883655
7.55122449615
7.47741917941
7.40605042575
7.33728099218
7.27124928873
7.20753590572
7.1474282583
7.09127998405
7.03953844028
6.99278295098
6.95175068887
6.91735569928
6.89069124958
6.87297886182
6.86550462464
6.86880266466
6.8845938659
444.948510021
248.900764953
221.488162509
213.4348413
204.705517045
181.047809341
141.797967308
117.520014267
97.5334553862
85.0912283028
76.1552612959
68.6745468858
61.6405609851
54.8526726858
48.9486440101
44.3296770901
40.7757810972
37.8471641004
35.2570172003
32.921076657
30.8668514163
29.1144902222
27.6307735546
26.3403199963
25.1781214927
24.110137594
23.1253354374
22.2214412444
21.3983746266
20.6464255451
19.9507661414
19.2991080182
18.6853936791
18.1091064215
17.5681502858
17.0569793231
16.5697153949
16.1032933604
15.6577247975
15.2329032858
14.8268787869
14.4369357203
14.0614621966
13.7003664539
13.3536141684
13.0203487161
12.6991733583
12.3891404828
12.0901438934
11.8021395099
11.5247913322
11.2574450065
10.999634935
10.7513465427
10.5126437286
10.2834610409
10.0636467124
9.85314463078
9.65190459074
9.4597874012
9.2766099825
9.10225250413
8.93663304721
8.77964536967
8.63116849704
8.49110263565
8.35933720942
8.23566155702
8.11972437733
8.01102348165
7.90887737083
7.81240138684
7.72054793484
7.63224149965
7.54656767812
7.46291323541
7.38095715693
7.30057553591
7.22174944824
7.14451760111
7.06895453219
6.99515553463
6.92322690394
6.85328350056
6.78544557045
6.71981772618
6.65599199103
6.59497280904
6.53701787604
6.48241854052
6.43154113614
6.38484955471
6.34292325241
6.30646974425
6.27632310065
6.25340309318
6.23867348481
6.23253716405
6.23621167253
480.124877449
267.544707973
237.482969094
228.744081472
219.567597916
194.617579042
153.024612083
127.762300458
106.635909852
93.5023362828
84.0539373257
76.1028431784
68.5698684446
61.2445903821
54.8429429405
49.8477840859
46.0648990523
43.0068466654
40.3091589298
37.7919213327
35.4373469525
33.3159928514
31.4782957002
29.9094073381
28.5374522593
27.2940894538
26.1432802085
25.0769393635
24.0981675585
23.2071517454
22.3897093639
21.6259965656
20.9007151507
20.206648539
19.5436209638
18.9152349591
18.3214097369
17.7577946127
17.2195368287
16.7045523175
16.2134058887
15.7461580057
15.3007881525
14.8746156031
14.4660662931
14.0749287027
13.7010186296
13.3432960307
13.0002632507
12.6708368911
12.3546233342
12.0512743973
11.7601428733
11.480329277
11.2111161279
10.9521822351
10.7032448763
10.4639431175
10.2337760714
10.0123350614
9.79942186476
9.59489987785
9.39860027682
9.21032958922
9.02992823868
8.85725682129
8.69213981118
8.53439118907
8.38385057366
8.24038736456
8.10386382839
7.97413705453
7.85106325724
7.73448559434
7.62418280801
7.51984260928
7.42104731008
7.32726979703
7.23786372864
7.15209644741
7.06923214714
6.98863830998
6.90986794077
6.83266060771
6.75689438722
6.68253116586
6.60958298202
6.53809400803
6.46812854322
6.3997631836
6.33308381028
6.26817535932
6.20505639421
6.14354883612
6.08448821045
6.02804114907
5.97442383982
5.92391781332
5.87688126042
5.83375987149
5.79509366433
5.7615136398
5.73371078652
5.71241101721
5.69793221238
5.69112736059
524.124071678
290.738009282
258.040303254
250.464819126
247.81357646
239.448666001
212.074549335
166.220798277
139.289552329
116.617330422
102.606695834
92.5456160803
84.0365914528
75.903080883
67.9205364806
60.8887329265
55.3759178545
51.2145186594
47.8678757059
44.9157658112
42.1455658789
39.5332493971
37.1683836866
35.1288463904
33.4077621184
31.9181747655
30.565857839
29.289171369
28.0672374962
26.9089454908
25.832636447
24.8478013941
23.9424979748
23.0957977133
22.2917507194
21.5244552153
20.7958810186
20.1094192348
19.4623815989
18.8475736866
18.2578655466
17.6893555
17.1421803972
16.6186795962
16.1199104236
15.644528299
15.1904177855
14.7564145771
14.3424020814
13.9481775826
13.5725423076
13.2138895518
12.8710200027
12.5433165523
12.2302541557
11.9309854081
11.6444639539
11.3698150335
11.1064824649
10.8539565256
10.6116534234
10.3788981949
10.1551105186
9.93990151567
9.73292357412
9.5338202806
9.34219457708
9.15770023527
8.98009317551
8.80918274938
8.64477841352
8.48669337364
8.3347578349
8.18882354619
8.0487332399
7.91433177168
7.78547623433
7.66204351008
7.54390981893
7.43094828992
7.32302398884
7.21998766646
7.12164715428
7.02775037459
6.93797432304
6.85192735988
6.76914965447
6.68913592014
6.61138819954
6.53547625665
6.46108694057
6.38802724389
6.31619978117
6.24557037273
6.1761450197
6.10795601635
6.04105259439
5.97549456817
5.91134767238
5.84866661375
5.78717335746
5.72757752014
5.67000563935
5.6145998841
5.56153803797
5.51104383951
5.46339617893
5.41893759182
5.37807902977
5.34129719096
5.30911261023
5.28207655827
5.26044961156
5.24482980805
600.778589986
330.17664634
291.459268788
282.176956656
280.395853798
278.3956917
268.038708353
235.665259755
183.21463829
154.817672853
130.567262344
115.675611388
105.229701752
96.7438676312
88.9430544528
81.0615870802
73.0327206641
65.79954385
60.0659818535
55.7261612101
52.2341721599
49.1309808386
46.1754197609
43.3380770048
40.7309826898
38.4665125794
36.5557783069
34.9075490369
33.4097075281
31.9865825385
30.6141616336
29.3098380804
28.1053987527
27.0159347022
26.0248126436
25.1001487215
24.2145558973
23.3552327964
22.5235511795
21.7291141632
20.980356827
20.2767204989
19.6111502816
18.9763944882
18.3688879918
17.7890376036
17.2384922334
16.71656464
16.2201420605
15.7455897313
15.2904227039
14.8540677867
14.4370768065
14.0397261222
13.6612102509
13.3002462119
12.9558539831
12.6274510445
12.3145241798
12.0161512474
11.7312230862
11.458794644
11.1981806125
10.9487874503
10.7099231429
10.480836043
10.2608611692
10.0494891375
9.84626208178
9.65071469392
9.46236692336
9.28079403385
9.10566881403
8.93670034925
8.77360607622
8.61609851129
8.46392212123
8.31687436696
8.17479092072
8.03751792053
7.90491204823
7.77684130512
7.6531902192
7.53384430699
7.41869372776
7.3076343539
7.20057381065
7.0974182802
6.99807095964
6.90242439238
6.81035746432
6.7217180562
6.63631446821
6.5539076229
6.47421544245
6.39691692602
6.32166870802
6.24813835578
6.17603994332
6.10516286843
6.03537530853
5.9666106914
5.89884824216
5.83209745076
5.76638778916
5.7017615831
5.63826869923
5.57596075177
5.51484106337
5.45489982276
5.39660797363
5.34003387012
5.28527524999
5.23246393566
5.18176961524
5.13340502928
5.08763119556
5.04476022605
5.00515332642
4.96920579711
4.93734161624
4.9097814794
4.88695173364
1046.94816733
580.629570585
516.079858204
499.208838871
489.45951689
462.651650089
389.600661564
283.032657899
230.141282779
183.911993404
157.41322034
140.21983933
127.284379928
116.33006072
106.060995164
95.6543377092
85.1736120387
75.9039320986
68.7196593889
63.4847672959
59.4897186034
56.0917709381
52.9002135679
49.7355755017
46.6203931739
43.7137360743
41.1702355603
39.0294957422
37.1968795592
35.5367290329
33.9541854752
32.4185599299
30.9521926086
29.5986972821
28.3817705447
27.2860945692
26.2731007861
25.3090900781
24.3788863
23.4855246561
22.641990825
21.857844949
21.1299101049
20.4460790025
19.7935882685
19.1649264363
18.558836494
17.9786129498
17.4280493399
16.9076773429
16.4148068834
15.9459055776
15.4985065311
15.0718483484
14.6659264513
14.2800429098
13.9124935191
13.5612375405
13.2246613082
12.9019882464
12.5930123792
12.2975717372
12.0150905583
11.744767099
11.4859019946
11.237952194
11.0004581717
10.7727990679
10.5542800701
10.3442797326
10.1422958988
9.94789493327
9.76061805407
9.5799937879
9.40559856611
9.23708713442
9.07415143639
8.91649072348
8.76380737864
8.61583644889
8.47236271275
8.33319485072
8.19814972429
8.06704663706
7.93972358528
7.81604648961
7.69590446079
7.57919652266
7.46583037227
7.35572060172
7.24879254269
7.14497349762
7.04419466785
6.94638903679
6.85149509574
6.75944872076
6.67018147608
6.58361418119
6.49965482961
6.41818834207
6.33907192694
6.26213064336
6.18716184417
6.11394021105
6.04223004448
5.97180699162
5.90247998523
5.83410878343
5.76660659165
5.69993222766
5.63407786596
5.5690583526
5.50490358187
5.44165310133
5.37935221411
5.31805095884
5.25786492342
5.1990657787
5.14154030147
5.08538155299
5.03069064527
4.97758536296
4.92620641748
4.87672332276
4.82933939326
4.78429459203
4.74186496727
4.70235304654
4.66608711322
4.6332525605
4.60415464322
1305.61263001
721.907121808
639.364442983
612.440218591
580.970947528
502.249893255
379.239070226
309.996113831
252.52642731
217.473954566
193.126186954
173.568145178
155.724498956
137.823356592
120.004464162
104.598022361
92.7914349579
84.3511985754
78.1239630052
73.0687074737
68.5430713299
64.1836239993
59.8429372796
55.5980490794
51.6752311881
48.2820093987
45.4792833054
43.1477223785
41.099137639
39.1832264708
37.3169156658
35.4862333335
33.7286700944
32.102121667
30.6413124954
29.3339745005
28.1361111767
27.0076317684
25.9289154817
24.9011587379
23.9380414559
23.050131077
22.2346684901
21.4775750796
20.7637749839
20.0839992591
19.4360689666
18.8227799206
18.2470234849
17.707518251
17.199244486
16.7162330845
16.2541056346
15.8109601274
15.3870399134
14.983262562
14.599603476
14.2347754761
13.8869429858
13.5545587211
13.2367533678
12.9330671942
12.6429028603
12.3652777122
12.099040221
11.8431995123
11.5971302256
11.3604858035
11.1330081455
10.9142943883
10.7038409248
10.5011889733
10.3059487981
10.1177821217
9.93628962219
9.76104305909
9.59164870389
9.42777120684
9.26911740729
9.11538956496
8.96629122337
8.82155365165
8.68094985351
8.5442771422
8.41134101103
8.28195319508
8.15594523007
8.03317570581
7.91351827653
7.79685239416
7.68306105243
7.57203864295
7.46369556598
7.35795667449
7.25475425637
7.1540273021
7.05571939884
6.95978073835
6.86616343075
6.77482192112
6.68571087544
6.59878680373
6.51400286933
6.43130758397
6.3506398177
6.27192721997
6.19508008254
6.11998917036
6.04652338201
5.9745337759
5.90385850215
5.83433210756
5.76579999429
5.69813260876
5.63123607036
5.56505416589
5.49956323293
5.43476412837
5.37067470416
5.307324131
5.24474886227
5.18299003535
5.12209303154
5.06212685179
5.00344495748
4.94591677176
4.88956392457
4.83445698766
4.78068295022
4.72834838005
4.67758267381
4.62854113572
4.58140698073
4.53639138412
4.4937273975
4.45367140602
4.4163803012
4.38208963211
1643.75091707
907.913592573
804.021497765
769.410558622
728.380525033
627.222525933
470.601026368
382.789924863
309.982259484
265.184707834
233.45187343
207.091695445
182.337997699
158.503951468
137.946507606
122.165959541
110.567015944
101.530488468
93.7762689962
86.5496537852
79.5334550382
72.8198208991
66.7432797892
61.5839380751
57.421621898
54.0671262442
51.2246170622
48.6499897293
46.184694119
43.7556160373
41.3703991616
39.0935837824
37.0085411921
35.1645293544
33.5446104595
32.0857194364
30.724686257
29.4205524968
28.1601445612
26.9523796499
25.8184849419
24.7744773548
23.8198174171
22.9389804106
22.1144902438
21.3351982314