/*--------------------------------*- C++ -*----------------------------------*\
| =========                 |                                                 |
| \\      /  F ield         | OpenFOAM: The Open Source CFD Toolbox           |
|  \\    /   O peration     | Version:  2.3.1                                 |
|   \\  /    A nd           | Web:      www.OpenFOAM.org                      |
|    \\/     M anipulation  |                                                 |
\*---------------------------------------------------------------------------*/
FoamFile
{
    version     2.0;
    format      ascii;
    class       volScalarField;
    location    "526";
    object      k;
}
// * * * * * * * * * * * * * * * * * * * * * * * * * * * * * * * * * * * * * //

dimensions      [0 2 -2 0 0 0 0];

internalField   nonuniform List<scalar> 
10011
(
0.773329973229
1.11759146019
1.35500171469
1.50536828444
1.59453745524
1.64323842788
1.66624526642
1.67359010669
1.67191531514
1.66558572134
1.65751280325
1.64973895809
1.64386199677
1.6413578695
1.64188711816
1.64489909182
1.64809576208
1.72071188306
0.492772080965
0.515726739385
0.519700259295
0.518737240758
0.515087548702
0.5098623309
0.504019493663
0.498230505505
0.49289740637
0.48822076464
0.484253516551
0.480929986729
0.478062290542
0.474876204769
0.471513454649
0.467381508966
0.458505123236
0.439903069086
0.412179189948
0.424400002674
0.422229367546
0.414565559746
0.404645509566
0.393872147329
0.382989826665
0.372426839377
0.36243112438
0.353135305912
0.344591572388
0.33679030041
0.329708707936
0.323444676487
0.318021813434
0.313257992504
0.309035291102
0.305612227145
0.381902972533
0.385994367474
0.38637451305
0.383983418162
0.379837696977
0.374656718028
0.368920304165
0.36295170036
0.356972906371
0.351141178824
0.345580357589
0.340405166151
0.335678768616
0.331499661614
0.328035124265
0.325590653891
0.324725013379
0.326098395727
0.375246800972
0.375549150099
0.375007912882
0.37355156986
0.371341557085
0.368577038637
0.365444073683
0.362100270808
0.35867596355
0.35528505331
0.352026815406
0.348988920712
0.346281989514
0.34406002719
0.342560068253
0.342151285502
0.343294978158
0.345934341359
0.373465971408
0.372232398506
0.370965914201
0.369480445324
0.367748646709
0.36580600895
0.363711516566
0.361532404815
0.359338636194
0.357199921748
0.355189074804
0.353392418258
0.351923073368
0.350939572132
0.350667326321
0.351404705157
0.353407469285
0.356276139413
0.372978199435
0.37112838581
0.369432477688
0.36778558082
0.366140071515
0.364482545541
0.362820983118
0.361179560443
0.359594007568
0.358108852287
0.356780906435
0.355684707004
0.354920703151
0.354624538927
0.354971214525
0.356155055224
0.358266232095
0.360828409936
0.372862114044
0.370815085883
0.368937570975
0.367179469222
0.365509647239
0.363912131003
0.362383696293
0.360934476459
0.359585944582
0.358371037683
0.357335939968
0.356543630371
0.35607817894
0.356047485147
0.356578274981
0.357788839519
0.359687292331
0.361837849538
0.372824033494
0.370699877499
0.368735730595
0.366908715926
0.365202916645
0.363608821278
0.362123447973
0.360752194648
0.359510226438
0.358423179918
0.357528628575
0.356878191826
0.356539142161
0.356593212935
0.357127706137
0.35820878246
0.359803857599
0.361536427775
0.372808987893
0.370650977901
0.36864160964
0.366770336586
0.36503052216
0.363419236118
0.361936513397
0.360587601848
0.359384812355
0.358348628285
0.357508818215
0.35690537177
0.356588197933
0.356613731204
0.35703526051
0.357880954991
0.359099728233
0.360388833911
0.372802756298
0.370629547108
0.368596992441
0.366699197907
0.364933159811
0.36329895007
0.361798879295
0.360438736035
0.359229209127
0.358186762665
0.357334186244
0.356700588225
0.356320009542
0.356227445622
0.356450637282
0.356994577298
0.357806560042
0.358658518413
0.37280023577
0.370618959507
0.368572797966
0.366657603676
0.364871129722
0.363213856286
0.361688393583
0.360299979387
0.359057282142
0.357972825233
0.357062982769
0.356347355901
0.355847026311
0.355581074099
0.355560750334
0.355779910814
0.356193809775
0.356639349256
0.372799885435
0.370613514813
0.36855764495
0.366628835402
0.364824715735
0.363145057265
0.361591516192
0.360167770073
0.358879860114
0.357736263286
0.356747559502
0.355925582968
0.355281834846
0.354824953121
0.354557135344
0.35446883628
0.354526454592
0.354617943639
0.372801191804
0.370611444577
0.368547927012
0.366607338101
0.364786964344
0.363085616068
0.361503600577
0.36004271838
0.358706331545
0.35749924345
0.356427271767
0.355496468666
0.354711935922
0.354076229207
0.35358740852
0.35323631483
0.352999692201
0.352802886981
0.372803753522
0.370611918353
0.368542385138
0.366591585527
0.364756352218
0.363034579916
0.361425288611
0.359928575997
0.358545552154
0.3572781473
0.356128725234
0.355099494068
0.354191732053
0.353404880361
0.352735570702
0.352176284834
0.351711787269
0.351293642041
0.372807008297
0.370614060832
0.368539982059
0.366580685186
0.364732472174
0.362992440831
0.36135855023
0.359829559888
0.358404916062
0.357084555177
0.355868600062
0.35475695784
0.353748851713
0.352842334573
0.352033828831
0.351317486274
0.350683722873
0.350102131396
0.372810165579
0.370616694188
0.368539285944
0.366573244127
0.364714328166
0.362958985336
0.361304382626
0.359748336032
0.358289187662
0.356925630306
0.355656477702
0.354480395031
0.353395616595
0.352399680888
0.351489210594
0.350659624074
0.349905052846
0.349207342296
0.372812247376
0.370618358691
0.36853848997
0.366567410462
0.364700442555
0.36293358455
0.36126349685
0.359687419622
0.358203053541
0.356808405422
0.35550160615
0.354280717205
0.353143544891
0.352087478625
0.35110937482
0.35020544386
0.349372028302
0.348598665392
0.372812930995
0.370618467363
0.368536666291
0.366561925908
0.36468931904
0.362914616394
0.361234217028
0.359645059941
0.358144511864
0.356730224406
0.355399977466
0.354151526788
0.352982467755
0.351890123321
0.350871476779
0.349923150298
0.349042700551
0.348224156689
0.372812737168
0.370617591982
0.368534143948
0.366556580382
0.364679924906
0.362899896746
0.361212788118
0.3596153925
0.358104899853
0.356678756516
0.355334525881
0.354069764541
0.352881916892
0.351768231021
0.350725717502
0.349751176938
0.348842813068
0.347997298084
0.372812232484
0.37061648015
0.368531670346
0.366552000721
0.364672689511
0.362889537134
0.36119880095
0.359597178475
0.35808170359
0.356649607479
0.355298203478
0.354024794053
0.352826592852
0.351700663759
0.350643899932
0.349653081101
0.348726696703
0.34786308312
0.372811959154
0.370616428193
0.368531797909
0.366552724765
0.364674849141
0.362893938661
0.361205935339
0.3596070679
0.358093780756
0.356662649967
0.35531033864
0.354033556435
0.352829015152
0.351693389693
0.35062331012
0.34961542671
0.348668373062
0.347781722225
0.372813584147
0.370623743197
0.368549054285
0.366584814359
0.36472591474
0.362966147217
0.361299122545
0.359718788891
0.358219531332
0.356796222429
0.355444244566
0.354159443032
0.352938040505
0.351776547852
0.350671704067
0.34962048366
0.348622134144
0.347678308775
0.37282772667
0.370676249266
0.368660732205
0.366769330092
0.364986307877
0.363294964743
0.361680932589
0.360133024372
0.358642918912
0.357204667491
0.3558141613
0.354468600752
0.353166049874
0.351905105873
0.350684687903
0.349503941084
0.348364320004
0.34727126796
0.372923697896
0.370973933044
0.369206446993
0.36755479206
0.365964138014
0.364397389549
0.362834472919
0.361267225249
0.359694597795
0.358119456225
0.356546540764
0.354981198853
0.353428669113
0.351893726961
0.350380559779
0.348892766776
0.347435554467
0.3460206599
0.373481355358
0.372383418506
0.371377296165
0.370242985363
0.368898635688
0.367338747157
0.365593197704
0.363701679552
0.36170216411
0.359627383435
0.357504359818
0.355354929002
0.35319655874
0.351043177042
0.348905920182
0.346793765142
0.344716027389
0.342690263351
0.376467292162
0.378249614643
0.378882536085
0.378248683792
0.376643578156
0.374369071424
0.371646677688
0.368629446124
0.365422890668
0.362101141592
0.358717690635
0.355312128051
0.351914356844
0.348547286015
0.345228620369
0.341972091005
0.338789713482
0.335703647394
0.392537949772
0.401174049625
0.401931834039
0.39925121855
0.39502757432
0.390056627897
0.384715407269
0.379200774455
0.373628253672
0.368074770604
0.362596358165
0.357235529607
0.352024694037
0.346988027491
0.342142647849
0.337499319688
0.333063039552
0.328845222014
0.438449311947
0.450018641998
0.451120319651
0.449975108522
0.448326347473
0.446464468215
0.444471614769
0.442390953971
0.440255029025
0.438097029581
0.435951148178
0.433849205829
0.431817973274
0.429877798778
0.428041748334
0.426313630787
0.424679235024
0.42308949939
0.544762696416
0.705316523669
0.836234254559
0.945654888131
1.04096464096
1.12179872423
1.18865002022
1.24260154035
1.28505635369
1.31752457035
1.34148592325
1.3583120244
1.36922879543
1.37530458637
1.37745401787
1.37645008108
1.37294919472
1.36741871768
0.173093754037
0.157212778087
0.152211697451
0.148745023516
0.146927649665
0.145935642793
0.145479778138
0.145422567394
0.145651205728
0.146074829001
0.146629770453
0.147273296196
0.147976085241
0.148717282369
0.14947350889
0.150242854246
0.151026723124
0.151826325042
0.152642198379
0.153473756784
0.154318443192
0.155170774715
0.1560210875
0.156853506889
0.157642112234
0.158344623538
0.158882588739
0.15916138443
0.15832129556
0.194012982322
0.177377475233
0.162263753995
0.137675578408
0.122898452079
0.11486975674
0.108685478841
0.103848293325
0.100458676601
0.0982517913634
0.0969589921735
0.096413201257
0.0965031984165
0.0971432572803
0.0982655144513
0.0998166940878
0.101754485244
0.104046357175
0.106653771473
0.109543240203
0.112685851938
0.116057664341
0.119641238256
0.123414429443
0.127355790515
0.131442319223
0.135650992962
0.139961956078
0.144371002658
0.148934787735
0.153960568839
0.16106908434
0.215681959291
0.202873171689
0.189722219159
0.174648589265
0.148307701412
0.130535557144
0.120267419742
0.114450752626
0.112562848459
0.112176042644
0.111092136965
0.109820212417
0.108952804337
0.108571079533
0.108618268058
0.109063034342
0.109887480746
0.111069981988
0.112586347859
0.114413239045
0.116528910663
0.118914962998
0.12155274209
0.124423173525
0.127506942681
0.130781989282
0.134217636751
0.137808983126
0.141550148487
0.145429938904
0.149444554883
0.153605296146
0.157959405659
0.162646461436
0.168014322374
0.175288619778
0.228786945779
0.216255706868
0.204127404039
0.189260272247
0.161711201012
0.142335730646
0.12991387145
0.12201187602
0.117353212072
0.115431137897
0.115496306752
0.117163706103
0.12009754047
0.123384865374
0.125726340542
0.127271839637
0.128587589287
0.129891853759
0.131221058736
0.132602221063
0.134066571487
0.135635039857
0.137319118308
0.139125757342
0.141059538761
0.143123430789
0.145319010582
0.147646694366
0.150106011114
0.152696134283
0.155417512407
0.158261250402
0.161243824967
0.164368268694
0.167646453908
0.171108929139
0.174825967329
0.178952679484
0.183776172967
0.190066607582
0.240664244917
0.228196435017
0.216874334146
0.202068637286
0.173454451019
0.152903687748
0.139560681366
0.130741814692
0.124994736189
0.121685747262
0.120020300402
0.120017837515
0.12150888858
0.124088123944
0.127559796826
0.131721048897
0.136365699542
0.140967894925
0.144714603046
0.14755981049
0.149905607975
0.151998778649
0.153924328611
0.155734250928
0.157477482102
0.159191161591
0.160900405013
0.162623296683
0.164374015483
0.166164097745
0.168003196016
0.16989971536
0.171861363568
0.173895663129
0.176010345503
0.178218908693
0.18053321171
0.182969309866
0.185552138833
0.188325235103
0.191367828792
0.194824405604
0.19890740293
0.204086717326
0.252717143444
0.23996602049
0.229235164547
0.214396958713
0.184818376525
0.163217050506
0.149067783238
0.139516786788
0.133098846443
0.129187887627
0.126933838594
0.126241187928
0.126843379122
0.128288888061
0.130443491452
0.133341809163
0.136881802262
0.140898570084
0.145326179161
0.150065430086
0.154957435064
0.159657829499
0.163662347782
0.166865882697
0.169512841994
0.171813899692
0.173866572815
0.175729750481
0.177455704617
0.179086666649
0.180653505379
0.182179457832
0.183683189332
0.18518026019
0.186684029537
0.18820644209
0.189758749459
0.191351983779
0.192997914164
0.194717112739
0.196517670625
0.198422434513
0.200463368727
0.202689812908
0.205180524508
0.208060230257
0.211477761631
0.215729972847
0.270229045497
0.259538261849
0.254300827057
0.244838135417
0.228691021739
0.197195881116
0.174023048552
0.158821311166
0.148399092311
0.141262827303
0.13680693126
0.134118155747
0.133023556612
0.133235792514
0.134284077339
0.135974208432
0.138279865741
0.141055243877
0.144121353854
0.147474008689
0.151148825179
0.15508899404
0.15922252039
0.163526629234
0.167956070808
0.172394640478
0.176609600617
0.180284983049
0.183313799033
0.185828289251
0.187983939749
0.189871570104
0.1915490502
0.193066095027
0.194464321067
0.195775709591
0.197024981393
0.198232195182
0.199414235515
0.200585770741
0.201760089933
0.20294988919
0.204167518911
0.205427980885
0.206749736984
0.208142391163
0.209631394124
0.211251413313
0.213052583994
0.215107915632
0.217520796767
0.220391574902
0.223921045552
0.284854250616
0.274408665301
0.270069252735
0.261204914395
0.245080580956
0.212715597479
0.188684314359
0.172680095531
0.160882664256
0.15220450985
0.146047435279
0.142156596264
0.139778586672
0.138830748025
0.139087028807
0.14011155376
0.141703424934
0.143837823213
0.146376694229
0.14913646038
0.152079620562
0.155211926166
0.158460945081
0.161758133021
0.165128654398
0.168612931435
0.172191330891
0.175834305933
0.179537196909
0.183278027172
0.186973918191
0.190464738104
0.193547922118
0.196133597922
0.198286301873
0.200111299499
0.201683534916
0.203054437718
0.204267659542
0.205360672437
0.206363524405
0.207300131994
0.208190225006
0.209050654531
0.209896281248
0.210740762282
0.211597257146
0.21247867716
0.213403586714
0.214381199478
0.215427819112
0.216569579992
0.217841362663
0.219291125809
0.220983718639
0.223002859047
0.225414140635
0.228364430764
0.299231592483
0.289512488754
0.285803710304
0.2773136061
0.261004041268
0.22761584257
0.202447600882
0.185582645791
0.173007446702
0.16351713468
0.156497221027
0.151665824414
0.14815465818
0.14585379205
0.144897108687
0.145118960575
0.146089612105
0.147611368693
0.149651630284
0.152072235671
0.154688446638
0.157441613443
0.16032984379
0.163279471407
0.166213835945
0.16913470739
0.172061387314
0.174966331006
0.177828083285
0.180676470709
0.183549940449
0.186450468646
0.189367875388
0.192301787998
0.195236816266
0.198113070505
0.200819781267
0.203224400448
0.205257437343
0.206946190167
0.20835761481
0.209548689662
0.210562027121
0.211434085023
0.212196841562
0.212876905811
0.213496088398
0.214072721952
0.214622712789
0.215160309081
0.215698785586
0.216250831413
0.21682983021
0.217452404428
0.21812523046
0.218869185893
0.219709644459
0.220679895002
0.221823844497
0.223197344906
0.224867193524
0.226875116004
0.229335700218
0.313857184095
0.304691312925
0.30147142666
0.293276128499
0.276793402784
0.242508009985
0.216333364529
0.198703408672
0.185440791411
0.175256844116
0.167576959273
0.162167361542
0.158144891322
0.155330661897
0.15380081263
0.153354596963
0.153529208498
0.154135132418
0.155228559736
0.156871934554
0.15894659481
0.161259378273
0.163738613422
0.166361939124
0.169045718181
0.171704877367
0.17432380366
0.176910602396
0.179433180456
0.181862343922
0.18421166726
0.186504718832
0.188738936233
0.190913560959
0.193054055332
0.195191504003
0.197335799632
0.199485342926
0.201638989753
0.203783089301
0.205873338094
0.207832555823
0.209572246148
0.211040456859
0.212245287933
0.213227192512
0.214027034397
0.214678328267
0.215210433151
0.215649649801
0.216018589481
0.216336328343
0.216619231699
0.216881742918
0.217137013789
0.217397459161
0.217674827496
0.217983743296
0.218331147939
0.218732654543
0.21920758784
0.219779859268
0.22048012008
0.221347277875
0.222428327697
0.223776064333
0.225416400165
0.22744242166
0.329975525702
0.32102710884
0.318042104014
0.309926544607
0.29309647099
0.257838651459
0.230625238259
0.212238600894
0.198311771849
0.187463804811
0.179160922725
0.173228809051
0.168776481632
0.16556842944
0.163648772599
0.162823257524
0.162640995821
0.162882329823
0.163576316525
0.164759882698
0.166298589608
0.167990189911
0.169794588402
0.171757556426
0.173892831342
0.176128512909
0.178380470449
0.180624438445
0.182852543464
0.185022815296
0.187097805377
0.18907816599
0.190976953579
0.192786119983
0.194497799272
0.196126162647
0.197692116172
0.199203617805
0.200667593231
0.20210391074
0.203535596815
0.204973729895
0.206419068738
0.207868763982
0.209309716002
0.210708055944
0.212009367236
0.21315336451
0.214101770501
0.214853603734
0.215432209113
0.215865703324
0.216179466272
0.216396533448
0.216538022139
0.216622639292
0.216666617549
0.216684184029
0.216688115991
0.216690223808
0.216701628659
0.216733364811
0.216796322326
0.216899271651
0.217058364517
0.217291441517
0.217620483355
0.218072917355
0.218682364379
0.219487687665
0.220530421766
0.221826432785
0.223452772107
0.349177896083
0.341338550673
0.34137944834
0.340544393273
0.331596305031
0.312638851998
0.275049327564
0.24599888516
0.226506015745
0.211700687004
0.200025102302
0.190996851802
0.18452058084
0.179668875072
0.176122863907
0.173884861028
0.172765145753
0.172326146434
0.172323537525
0.172769627174
0.173691394815
0.174958427613
0.17637335366
0.177877251069
0.1795021252
0.181251548612
0.183050899013
0.18482055903
0.18656108813
0.188305870638
0.190057666961
0.191778176062
0.193431805994
0.19501518194
0.196531912254
0.19796701384
0.199305953509
0.200553754181
0.201722788008
0.202815389086
0.203832527895
0.204786168199
0.205692744676
0.20656275789
0.207405027476
0.208234042497
0.209065642102
0.209908395761
0.210762848304
0.211624475303
0.212480595957
0.213304889687
0.214058454857
0.214699567253
0.215200215595
0.215555790751
0.215779199582
0.215889277352
0.215904777302
0.215843481844
0.21572211761
0.21555592449
0.21535848858
0.215141977021
0.214917508189
0.214695490401
0.214485622773
0.214298896351
0.214139568818
0.214023190591
0.213963401322
0.213976111547
0.214080822069
0.21430135693
0.214666124961
0.215206831794
0.215956136622
0.216923856674
0.218174038062
0.368466654674
0.360789750741
0.361160697428
0.360727883371
0.351966703389
0.33274980462
0.294374655152
0.264625229172
0.244930713265
0.229954732288
0.217481915979
0.207170169524
0.198987959884
0.193060638606
0.188563901505
0.185242911282
0.183132381409
0.182072495392
0.181652281638
0.181626666976
0.182009472712
0.182830869957
0.183971841456
0.18524694443
0.186588824171
0.188026305538
0.189563750384
0.191133053184
0.192658091041
0.194131842124
0.195580848536
0.197004972346
0.19836844519
0.19964301915
0.20084100882
0.201988562273
0.203090365265
0.204129340938
0.20509106632
0.205978159475
0.206797569805
0.207546892502
0.208222313497
0.208829343884
0.209377999749
0.209873753632
0.210320711706
0.210728001227
0.211107550521
0.211468546836
0.211818747609
0.212167957486
0.212526156688
0.212898634811
0.213284710714
0.21367883817
0.214069226556
0.214435296795
0.214748961705
0.214981062306
0.21511123709
0.215134044956
0.215056368363
0.214890689027
0.214650709573
0.214350063348
0.21400193336
0.213618651673
0.21321149301
0.212790766495
0.212366042121
0.211946276628
0.211540107705
0.211154337193
0.210799005426
0.210485809837
0.210226835605
0.210036238233
0.20993101827
0.209931473497
0.210061223549
0.210345900129
0.210811267292
0.211463743727
0.212356340122
0.388785374157
0.381839343676
0.383656294943
0.386985391296
0.386866691513
0.37690145561
0.355472672818
0.314792991509
0.283109799083
0.262349414696
0.24659029688
0.23334297487
0.222200425718
0.213222898271
0.206621152717
0.201462618691
0.197310613734
0.194162848159
0.192163777388
0.191181202106
0.190812922823
0.190815900001
0.191203305828
0.192003208535
0.193098812984
0.194310725973
0.195566342804
0.196892247855
0.198294921548
0.199712968389
0.201075957809
0.202373320215
0.203629100353
0.204844605199
0.205988527979
0.207034744685
0.207991930234
0.208882262844
0.209709672569
0.21046010759
0.211125342473
0.211716945569
0.21225334366
0.212740269614
0.213171492881
0.213541783632
0.213854430119
0.214115900876
0.21432814197
0.21449170573
0.214611147278
0.214693645685
0.214744408908
0.214767677985
0.214769894767
0.214759061703
0.214741959249
0.21472429028
0.214712212432
0.214711387599
0.214724317175
0.214749184405
0.21478015035
0.214806796836
0.214813135294
0.214778833753
0.214683442322
0.214512332314
0.21426053803
0.213931672989
0.213534066872
0.21307774528
0.212573172086
0.212030749543
0.211460446006
0.210871584809
0.210272856913
0.209672439361
0.209077948001
0.208497499533
0.207934838979
0.207402819521
0.206910667394
0.206468726224
0.206089177915
0.205786471856
0.205577579925
0.205481885812
0.205520002372
0.205712394747
0.206063760822
0.20661764297
0.408022014068
0.401324379641
0.40357465799
0.40747458446
0.407943832432
0.398340276325
0.376821674382
0.335673615661
0.303359288822
0.282447200877
0.266856838557
0.253717721161
0.242007777913
0.231838640521
0.223486812832
0.217295760772
0.212408476546
0.2084218078
0.205338337701
0.20329626542
0.20216061556
0.201517573379
0.201100888313
0.200932521364
0.20114452021
0.201792831754
0.202756505973
0.203848796896
0.204988828007
0.206195385307
0.207470246073
0.208752537081
0.209973824059
0.211120642237
0.212214618013
0.213258563945
0.214225570612
0.215092621106
0.21586681519
0.216568173405
0.217201397267
0.217754885862
0.218221300139
0.218610105104
0.218936813049
0.21920666827
0.219415545766
0.219562265957
0.219655086982
0.2197057652
0.219719260738
0.219694043067
0.219628510658
0.219525092941
0.219388220806
0.219220378698
0.219023092159
0.218799582278
0.218554472737
0.218291657712
0.218014472726
0.217727214554
0.217434970218
0.217142264537
0.216852845051
0.216570278295
0.216297375298
0.216034739529
0.215779907612
0.215527359092
0.215268329123
0.21499058288
0.214679467898
0.214320678055
0.213903868477
0.213425046037
0.212886169149
0.212292932959
0.211652753814
0.210973714034
0.210264057683
0.209531854563
0.208784801571
0.208030193503
0.207274917515
0.206525606461
0.20578727017
0.205068889423
0.204378277399
0.203723408337
0.203113262
0.202558245735
0.202070497021
0.201664048639
0.20135468286
0.201158957261
0.201093285516
0.201161630447
0.201399480638
0.42890372721
0.421952241977
0.424287812771
0.428456751135
0.429204438741
0.419620202419
0.397646205742
0.35579469977
0.322478884303
0.301011406547
0.2850276908
0.271483648469
0.259261483651
0.24845805971
0.239468426214
0.232748165319
0.227417386282
0.222916536314
0.219102594353
0.216119125823
0.214145823437
0.213054553636
0.212434590286
0.212014365365
0.211810014923
0.21194425744
0.212458799531
0.21322091953
0.214033145328
0.214814422321
0.215613715242
0.216501339321
0.217490592953
0.218520686562
0.219518882071
0.220463215184
0.221367645706
0.222229626752
0.223021231092
0.223718954564
0.224327195668
0.224863085363
0.225331481735
0.225722926125
0.226031253954
0.226264662139
0.226436523022
0.226551799644
0.226607190358
0.226601491058
0.226541336192
0.226436306379
0.226290808168
0.226104518824
0.225878262809
0.225617163726
0.225328054131
0.225014284741
0.224675777325
0.224312060723
0.223924537861
0.22351578615
0.223087659424
0.222641500747
0.222179424583
0.221704263484
0.221218658035
0.220724970474
0.220225992527
0.219724870947
0.21922445485
0.218727029996
0.218234488483
0.217747947947
0.21726693999
0.21678884214
0.216308821369
0.215819808083
0.215312606472
0.214776741099
0.214202265126
0.213581985771
0.212912951606
0.212196342299
0.211436196024
0.210638090347
0.209808323208
0.208953463445
0.208080057622
0.207194450759
0.206302733436
0.205410661272
0.204524135642
0.203647314015
0.202788870351
0.201954953726
0.201152260844
0.200388393312
0.199672088259
0.199013419894
0.198423894798
0.197916310677
0.19750400233
0.197200290858
0.197008936169
0.196958715153
0.45338492288
0.445866454347
0.448460908772
0.453899737215
0.458654361573
0.458806517837
0.447316535055
0.422369109569
0.37783068694
0.342230862816
0.319667420644
0.30304285514
0.288907663924
0.275967020023
0.264315278983
0.254541454984
0.247273713021
0.241624537892
0.236920847453
0.232929908566
0.229748350274
0.227541316726
0.226193495829
0.225293332401
0.224534536085
0.223885083938
0.223470384234
0.22343794481
0.223820088795
0.2244686923
0.225174430697
0.225844805612
0.226519042993
0.227257647263
0.228064591555
0.228874078123
0.229612493846
0.230265099066
0.230868629953
0.231456699189
0.232030796982
0.232564864517
0.233034508044
0.233439121358
0.233789940656
0.234087784716
0.234321603907
0.234483831826
0.234580025182
0.234620485168
0.234609226542
0.234543350275
0.234421580509
0.234249245432
0.234033920868
0.233779187794
0.23348462483
0.233150616257
0.232781061371
0.232381328097
0.231954330421
0.231500708098
0.231021476321
0.230519562513
0.229998692133
0.229460867915
0.228906314147
0.228334921796
0.227747463096
0.227145361457
0.22652984289
0.225901912
0.225262962506
0.224614759476
0.223959059899
0.223297496761
0.222631893538
0.221964197133
0.221296151042
0.220629072151
0.219963850752
0.219300679655
0.218638597104
0.217975132918
0.217306263672
0.21662645952
0.215928907151
0.215206169611
0.214451373271
0.213659596581
0.21282879959
0.211959825701
0.211055664364
0.21012059463
0.209159576394
0.208177876396
0.207180819034
0.206173624912
0.205161322138
0.204148776005
0.203140260749
0.202141946729
0.20115915659
0.200197228226
0.199261953306
0.198359786741
0.197498029244
0.196684990471
0.195930060503
0.195243606763
0.19463642665
0.1941194719
0.193696549637
0.193390994713
0.496170648782
0.485355775584
0.48634937948
0.49123107285
0.496539071827
0.500218350919
0.498256053833
0.482855340603
0.452543692607
0.403454707654
0.364209782434
0.340233031029
0.32332538381
0.309423599775
0.296697990396
0.284437543944
0.273025587553
0.263381593193
0.256381715184
0.25111978027
0.246834468813
0.243222534425
0.240348362662
0.238382370177
0.23725004805
0.236572967948
0.236042861962
0.235600923577
0.235347278522
0.235409629828
0.235812536016
0.236414277657
0.237011467707
0.237509045533
0.237940466954
0.238388589677
0.238920528227
0.23953721139
0.240170510403
0.240745598671
0.241243649559
0.241692450164
0.242116836075
0.242512202942
0.242850930919
0.243111632068
0.243300556989
0.24344183329
0.243552532163
0.243632403185
0.243670805925
0.243660158456
0.243603452844
0.243507193237
0.24337228569
0.243194074721
0.242969691258
0.242702340045
0.242397091607
0.242056245583
0.241678969364
0.241265155887
0.240817701456
0.24034051534
0.239835740213
0.239303660172
0.238744884541
0.238161622651
0.237556795648
0.236932233857
0.236288688535
0.235627035012
0.234948992695
0.234256623025
0.233551134332
0.23283281745
0.232101740905
0.23135840187
0.230603655265
0.229838342101
0.2290632281
0.228279291283
0.227487699742
0.226689652798
0.2258862886
0.225078817673
0.224268449654
0.223456225607
0.222642842104
0.221828602846
0.221013220881
0.220195563284
0.219373437857
0.218543582298
0.217701741023
0.216842906691
0.215961823544
0.215053774989
0.21411546251
0.213145587544
0.212144884071
0.211115680724
0.210061341708
0.208985824324
0.207893381116
0.206788353793
0.205675026168
0.204557515901
0.203439803375
0.20232571294
0.201220578653
0.200128739129
0.199054708411
0.198003367433
0.196980097336
0.195990925384
0.195042655699
0.194142930426
0.19330016982
0.192523196165
0.191821146068
0.191197961835
0.190672728731
0.595482173981
0.581018770139
0.583030015516
0.589042061195
0.593142138428
0.58824038519
0.562325386662
0.51594610155
0.449876437556
0.394024474667
0.362054465664
0.341116310895
0.325071064453
0.311287382575
0.298465883416
0.286136597062
0.274878066765
0.26568344906
0.259436649579
0.254953831727
0.251377115813
0.248298027311
0.24569474057
0.243773301885
0.242747343393
0.24252266903
0.242675888218
0.242867678002
0.243046898272
0.243332884803
0.243863823847
0.244667375526
0.245607173255
0.246487029814
0.247218524853
0.247837114669
0.248427408518
0.249054201748
0.249715713477
0.250344235458
0.250868078975
0.25127326832
0.251597300765
0.251886922312
0.252170112086
0.25244204842
0.252674237468
0.252843323463
0.252951913852
0.253018510571
0.253054432194
0.253055109515
0.253008154562
0.252907249707
0.252759287433
0.252577624856
0.25237037239
0.252136603975
0.251871026072
0.251570539395
0.25123701041
0.25087347252
0.250480314666
0.250055409499
0.249597527907
0.2491083576
0.248590353079
0.248044829359
0.247471694944
0.246871223749
0.246245139307
0.245595628032
0.244924095993
0.244231083875
0.243517280323
0.242784136083
0.242033446262
0.241266490718
0.240484015756
0.2396867938
0.238875973734
0.238052835876
0.237218206723
0.236372418482
0.235515665131
0.234648362711
0.233771132325
0.232884627574
0.231989483093
0.231086454619
0.230176390165
0.229260161299
0.228338590045
0.227412507182
0.22648268144
0.225549724715
0.224613960222
0.223675369091
0.222733448026
0.221787064971
0.220834335308
0.219872637812
0.218898700846
0.217908823475
0.216899257463
0.215866742909
0.214809079755
0.213725499317
0.212616696299
0.211484556449
0.210331782426
0.209161572383
0.207977387854
0.206782788774
0.205581314595
0.20437640036
0.203171463019
0.201970097058
0.200776139811
0.199593288875
0.198425343768
0.197276366152
0.196150797481
0.195053581104
0.193990269162
0.192967080134
0.191990876393
0.191068917663
0.190208887143
0.18941473664
0.188702240577
0.655583939119
0.638062218868
0.639208641744
0.643639346434
0.641295984774
0.619474567948
0.575571540802
0.501925856498
0.443192428909
0.407017477145
0.381425699375
0.360395744166
0.341055860033
0.322218820516
0.304603172517
0.289956546189
0.27955975257
0.27210869079
0.266327371988
0.261426276179
0.257110647616
0.253426646422
0.250631812376
0.248961686441
0.24828589039
0.24809474027
0.247964708073
0.24779273331
0.247675142617
0.247791086745
0.248298208558
0.249201208417
0.250310344158
0.251378749025
0.252297543065
0.253103952412
0.253893144432
0.254734972998
0.255622370742
0.256476142896
0.257214941846
0.257821977965
0.258333660007
0.258798009443
0.259242195735
0.25965796118
0.260012375666
0.260279359267