/*--------------------------------*- C++ -*----------------------------------*\
| =========                 |                                                 |
| \\      /  F ield         | OpenFOAM: The Open Source CFD Toolbox           |
|  \\    /   O peration     | Version:  2.3.1                                 |
|   \\  /    A nd           | Web:      www.OpenFOAM.org                      |
|    \\/     M anipulation  |                                                 |
\*---------------------------------------------------------------------------*/
FoamFile
{
    version     2.0;
    format      ascii;
    class       volScalarField;
    location    "526";
    object      nut;
}
// * * * * * * * * * * * * * * * * * * * * * * * * * * * * * * * * * * * * * //

dimensions      [0 2 -1 0 0 0 0];

internalField   nonuniform List<scalar> 
10011
(
3.09416051864e-05
3.71955017768e-05
4.09540777278e-05
4.31631958746e-05
4.44176895566e-05
4.50825934146e-05
4.53848028281e-05
4.54668031967e-05
4.54182036297e-05
4.52951355856e-05
4.51324128508e-05
4.49510381492e-05
4.47625737315e-05
4.45707065675e-05
4.43426341803e-05
4.40197299009e-05
4.34759901919e-05
4.03443038213e-05
0.000116754771365
6.95282568157e-05
5.17754478246e-05
4.25859184668e-05
3.73224725196e-05
3.40857812377e-05
3.19888273045e-05
3.05840218135e-05
2.96269944108e-05
2.8974632407e-05
2.85380726939e-05
2.82593980514e-05
2.81000569034e-05
2.80451851201e-05
2.80265050507e-05
2.79440606852e-05
2.77007222631e-05
2.68313761585e-05
0.000365666192313
0.000224200378792
0.000163715081806
0.00012943344253
0.000107811696695
9.32803781929e-05
8.30253609573e-05
7.55191800898e-05
6.98832698919e-05
6.55868392793e-05
6.23015524254e-05
5.98298025824e-05
5.81907411067e-05
5.71306600092e-05
5.64901466921e-05
5.63930482684e-05
5.71805200143e-05
5.94604808054e-05
0.000645082454881
0.000480387610166
0.000380890820054
0.000316549552019
0.000272406058946
0.000240852200688
0.00021755641582
0.00019993249466
0.000186382313202
0.000175897538669
0.000167911808077
0.000162165089597
0.000157764245457
0.000154649011757
0.000152899935448
0.000152843796536
0.000155153173747
0.000160699748374
0.000789525805882
0.000697852433426
0.000614162615094
0.000545746620284
0.000491412735705
0.000448488173016
0.000414442535167
0.000387278112994
0.000365536986457
0.000348337756446
0.000334735504663
0.000323848032908
0.000315359935062
0.000309162792363
0.00030536478049
0.000304326963077
0.000306620613479
0.000312511741624
0.000836249289281
0.000802606938555
0.000760357053446
0.00071664445965
0.000675400297386
0.000638342468134
0.000605931795769
0.000578052060256
0.000554530857964
0.000534605307808
0.000517822044065
0.000503897263349
0.000492666318966
0.000484104881299
0.000478345696869
0.000475669296184
0.00047636154294
0.000480132486741
0.000848398074726
0.000838762291552
0.000823567116745
0.000804445351324
0.000783253496321
0.00076154628809
0.000740451599459
0.000720721268612
0.000702521685919
0.000686071215337
0.000671478150025
0.000658819200189
0.000648182713583
0.000639699563108
0.000633556014715
0.00062996528698
0.000629014234596
0.000630208537495
0.00085084496467
0.000847645222024
0.00084199782531
0.00083397310315
0.00082405086988
0.000812883874453
0.000801117721025
0.00078923044905
0.000777625783458
0.000766626889701
0.000756492930873
0.00074744598716
0.000739695394245
0.000733454480293
0.000728940348122
0.000726336406263
0.000725657804829
0.000726421255328
0.00085147439529
0.00085028432532
0.000848210660835
0.000845067926304
0.000840866421022
0.00083576625063
0.000829979174388
0.000823760921033
0.000817367552215
0.000811043515389
0.000805018579514
0.000799511532788
0.000794735672307
0.000790900442285
0.000788200760931
0.000786778783321
0.000786617045868
0.000787295264595
0.0008516364819
0.000851062999781
0.000850274190814
0.00084915601579
0.000847646005822
0.000845732568932
0.000843453864486
0.000840887023661
0.000838137337141
0.0008353293093
0.000832600657884
0.000830098703492
0.00082797694398
0.00082638835885
0.000825470136899
0.00082531031938
0.000825869682026
0.000826805843418
0.000851668150782
0.000851240759044
0.000850807571508
0.000850330389038
0.000849778101896
0.00084913322709
0.000848394043237
0.000847576597211
0.000846715009464
0.000845860199333
0.000845077966932
0.000844446456472
0.000844051990626
0.000843981543829
0.000844309319739
0.000845072367015
0.000846217680921
0.000847475756523
0.000851671713339
0.000851266524705
0.000850901482369
0.000850569695435
0.000850265345004
0.000849986270787
0.000849734699056
0.000849518982152
0.000849355220926
0.000849267949346
0.000849289909744
0.00084946073891
0.000849823936495
0.000850421287543
0.000851283769583
0.000852416371186
0.000853764668674
0.000855124031279
0.000851671967658
0.000851264976229
0.000850901888746
0.000850584206043
0.00085031411457
0.000850096023928
0.000849936552659
0.000849845059522
0.000849834395106
0.000849921219361
0.000850125683573
0.000850470305311
0.000850977717984
0.000851666993119
0.000852548283039
0.000853614354818
0.000854820390024
0.000856018814233
0.000851673461047
0.000851262498048
0.000850891323019
0.000850562915258
0.000850280678822
0.000850049644695
0.000849876496881
0.000849769659662
0.000849739478588
0.000849798138275
0.000849959144999
0.000850236293373
0.000850642029436
0.000851185182574
0.000851868067772
0.000852682040369
0.000853595590432
0.000854507517801
0.000851676470132
0.000851262750068
0.000850883987641
0.000850542969099
0.000850242695774
0.000849987242344
0.000849781868452
0.000849632997248
0.000849548166333
0.000849535799348
0.000849604701656
0.000849763260627
0.000850018367586
0.000850374123279
0.000850830374071
0.000851380452873
0.000852004427208
0.000852635375754
0.000851680380474
0.000851265198224
0.000850880686042
0.000850528972497
0.000850212346046
0.000849933799587
0.00084969714177
0.000849506946271
0.000849368425902
0.000849287186742
0.00084926882649
0.00084931838607
0.000849439696295
0.000849634682428
0.00084990266264
0.00085023924595
0.000850632905213
0.000851040657058
0.000851684216568
0.000851268396487
0.000850879780045
0.000850519713602
0.00085018974674
0.000849891959336
0.000849629029727
0.000849404167272
0.000849220970597
0.00084908320809
0.000848994516935
0.000848958039753
0.000848976035516
0.000849049506335
0.000849177866947
0.000849358461685
0.000849585355929
0.000849831858801
0.00085168675497
0.000851270463003
0.000850878886811
0.00085051269456
0.00085017284791
0.000849860793886
0.000849578474762
0.000849328244893
0.000849112733486
0.000848934654327
0.000848796572112
0.000848700647661
0.000848648388701
0.000848640430243
0.000848676371969
0.00084875462265
0.000848872585728
0.000849013720787
0.000851687581928
0.000851270595806
0.000850876674064
0.000850506014186
0.000850159240318
0.000849837465072
0.000849542224416
0.000849275385045
0.000849039015881
0.000848835214209
0.000848665909368
0.000848532668522
0.000848436521784
0.000848377819809
0.000848356155106
0.000848370386824
0.00084841966996
0.000848493299285
0.000851687331654
0.000851269473878
0.00085087343997
0.000850499097887
0.000850146897165
0.000849817700395
0.000849512639515
0.000849233044479
0.000848980330249
0.000848755838192
0.000848560679058
0.000848395596521
0.000848260855145
0.000848156158268
0.000848080630354
0.000848032958018
0.000848012970246
0.000848013449486
0.000851686660584
0.000851267743604
0.000850868988708
0.000850489466489
0.000850128686279
0.000849786050368
0.00084946077736
0.000849152006504
0.000848858799553
0.000848580094754
0.000848314681783
0.00084806118935
0.000847818073896
0.000847583613694
0.000847355948052
0.00084713329732
0.00084691600539
0.000846700994985
0.000851685555689
0.000851262747804
0.00085085168037
0.000850444870772
0.000850033763721
0.000849608530954
0.000849159125766
0.000848676265986
0.000848151937052
0.000847579657528
0.000846954609032
0.000846273623953
0.000845535063195
0.000844738634494
0.00084388522364
0.000842976939285
0.000842019622605
0.000841023777886
0.000851677199516
0.000851213873184
0.000850692319517
0.000850064318597
0.000849283090689
0.000848308259397
0.000847110283721
0.000845671724275
0.000843986348099
0.000842057442627
0.000839895848233
0.000837517959297
0.000834943909549
0.000832196051008
0.000829297778728
0.000826272919613
0.000823149039766
0.000819974657039
0.000851582945993
0.000850738719014
0.000849360009559
0.000847270115936
0.000844369171329
0.00084063325027
0.000836100764418
0.000830851190692
0.000824985971246
0.000818614575531
0.000811845101141
0.000804778505416
0.000797505589058
0.000790105852349
0.000782647535486
0.000775188623542
0.0007677832605
0.000760526392713
0.00085071013831
0.000847076445589
0.000840664353333
0.000831513232078
0.000820018700471
0.000806734329018
0.000792226085167
0.000776989650593
0.000761424001883
0.000745833541938
0.000730440921764
0.000715402775349
0.000700824779567
0.000686774468496
0.000673291454436
0.000660395455816
0.000648097332846
0.000636465284975
0.000844080398562
0.0008249585072
0.000797753194254
0.00076615627724
0.000733015919171
0.000700222342087
0.000668859177794
0.00063945122136
0.00061218811498
0.000587072774788
0.000564010060979
0.000542858630814
0.000523460613127
0.000505657927928
0.000489300783985
0.000474251763182
0.000460390175092
0.000447662536183
0.000803305059031
0.000726472361487
0.000651173993979
0.000585181408152
0.000529210536254
0.000482213416547
0.000442708363823
0.000409298822833
0.000380826554327
0.00035636819791
0.000335194434538
0.00031672919725
0.000300515834937
0.000286190450313
0.000273461473255
0.000262094286342
0.000251900024733
0.000242750459401
0.000625686567243
0.000465055966668
0.000368475104926
0.000303982702126
0.000258091773977
0.000224130736216
0.000198186775418
0.000177839331339
0.000161535274338
0.000148236735802
0.000137224908533
0.000127987628
0.000120151441211
0.000113438703644
0.000107639709399
0.000102594468043
9.81810877532e-05
9.43197949525e-05
0.000254158414491
0.000158184522119
0.000117769408365
9.43787880703e-05
7.93398048485e-05
6.91094884703e-05
6.18472149369e-05
5.65209624366e-05
5.25154896243e-05
4.94432415086e-05
4.70492011537e-05
4.51597268778e-05
4.36532206644e-05
4.2442479036e-05
4.14636828197e-05
4.0669370761e-05
4.0023896298e-05
3.9504910565e-05
3.69332019523e-05
4.20247677424e-05
4.57590811077e-05
4.86608502418e-05
5.10541912352e-05
5.29994002878e-05
5.45557560179e-05
5.57801447532e-05
5.67250542949e-05
5.74372134144e-05
5.79571809761e-05
5.83195527346e-05
5.85534737663e-05
5.86832771526e-05
5.87291534935e-05
5.87077852865e-05
5.86331158024e-05
5.85149401211e-05
2.37371727299e-05
5.30715912562e-05
4.00446461207e-05
4.30180133638e-05
4.24330380848e-05
4.21283390103e-05
4.19625014254e-05
4.18766032576e-05
4.18391132556e-05
4.18308973983e-05
4.18404328404e-05
4.1860741595e-05
4.18874174667e-05
4.19175283419e-05
4.19478930141e-05
4.19783778232e-05
4.2009284137e-05
4.20408490917e-05
4.20731848067e-05
4.21062245308e-05
4.21396168263e-05
4.21726071112e-05
4.22038812994e-05
4.22313085469e-05
4.22514478423e-05
4.22587341293e-05
4.22428817331e-05
4.21915923521e-05
4.19913048609e-05
2.44034253347e-05
4.28296209879e-05
5.4177024059e-05
5.14462250366e-05
5.35097113042e-05
5.49748349079e-05
5.60796851859e-05
5.70147400028e-05
5.79972550411e-05
5.90286059934e-05
6.00994236342e-05
6.12216528027e-05
6.24113718037e-05
6.36827813223e-05
6.50485881711e-05
6.65199767723e-05
6.81056262538e-05
6.97823720454e-05
7.15538591873e-05
7.34239712182e-05
7.53916446339e-05
7.74557317473e-05
7.96241426022e-05
8.18786070861e-05
8.41980426113e-05
8.65559055625e-05
8.8917348206e-05
9.12345548452e-05
9.34381533288e-05
9.54119022478e-05
9.69224949189e-05
9.72076554332e-05
2.46680628848e-05
4.18014638122e-05
4.90545335814e-05
5.83031572784e-05
5.49349341482e-05
5.57100046532e-05
5.88654598902e-05
6.33190450523e-05
6.88552495853e-05
7.40567485445e-05
7.81879551087e-05
8.18524021771e-05
8.5476349638e-05
8.91467142991e-05
9.28756972545e-05
9.66806697955e-05
0.000100573063129
0.000104553142279
0.000108614443733
0.000112747424549
0.000116940753577
0.000121180362103
0.00012545122398
0.000129738000226
0.00013402498543
0.000138286040898
0.000142461685763
0.000146568910243
0.000150606110945
0.00015454621973
0.000158353386613
0.000161976561064
0.000165337190321
0.000168294824642
0.000170503679158
0.00017116431385
2.54447575786e-05
4.3222724671e-05
5.08759413065e-05
6.03609699881e-05
5.66562868412e-05
5.64010298124e-05
5.78630870155e-05
6.13571762018e-05
6.63885073948e-05
7.27332560637e-05
8.00338156033e-05
8.80665920775e-05
9.63731855902e-05
0.00010417214437
0.000110845317227
0.000116722833676
0.000122258124951
0.00012762868079
0.000132893728918
0.000138101842019
0.000143294523299
0.000148498949227
0.000153731229267
0.000159000741299
0.000164311978379
0.000169665185529
0.00017505682698
0.00018048002011
0.00018592490931
0.000191378359762
0.000196822222746
0.000202212630993
0.00020755756987
0.000212827401022
0.000217986745381
0.000222991428602
0.000227781170336
0.000232255879725
0.000236159925724
0.000239058417998
2.61711728947e-05
4.4560177556e-05
5.26394664832e-05
6.25405649611e-05
5.8888511843e-05
5.85367041005e-05
5.98241294692e-05
6.29604005182e-05
6.73063730042e-05
7.25405459428e-05
7.84694172402e-05
8.55365718951e-05
9.38177770167e-05
0.00010293410877
0.000112582318667
0.000122475988762
0.000132278945934
0.000141485205564
0.000149628777963
0.000156838161977
0.00016348166603
0.000169775470948
0.000175815293946
0.00018166981649
0.000187398197894
0.000193044777165
0.000198641016086
0.000204210183834
0.00020977003073
0.000215333921199
0.000220911515664
0.000226509262629
0.000232130733547
0.000237776754483
0.000243445318968
0.000249135130383
0.000254840786511
0.00026054910329
0.000266243053256
0.0002719023239
0.000277501469183
0.00028299781815
0.000288252610355
0.000293114739915
2.69487220369e-05
4.59498135464e-05
5.44215755735e-05
6.47220627881e-05
6.11512716442e-05
6.07779167093e-05
6.2010671724e-05
6.50435356405e-05
6.9274371306e-05
7.43641110883e-05
8.00531853257e-05
8.66939303887e-05
9.42802993831e-05
0.000102449557521
0.000111127980546
0.000120455491638
0.000130398851549
0.000140748749489
0.000151289025585
0.000161812046375
0.000172069791421
0.000181719849891
0.00019043414217
0.000198236646595
0.000205384104776
0.000212078798032
0.000218429324443
0.000224511430467
0.00023039025709
0.000236117855189
0.000241733610379
0.000247268119221
0.000252746043597
0.000258187538891
0.000263609149728
0.000269024508993
0.000274444874036
0.000279879355996
0.000285336183469
0.000290839062206
0.000296377708153
0.00030195546003
0.000307574740411
0.000313239098744
0.000318953404363
0.000324716844767
0.000330464640126
0.00033619167324
2.7511173508e-05
4.64441998781e-05
5.27560901836e-05
5.84799814213e-05
6.80076426689e-05
6.41475607774e-05
6.35199945045e-05
6.45792227124e-05
6.74597499087e-05
7.1592475744e-05
7.66333215512e-05
8.22776696862e-05
8.88478634051e-05
9.63368703488e-05
0.000104363877342
0.000112792462399
0.000121714933683
0.000131078541985
0.000140717400045
0.000150608925377
0.000160795594975
0.000171224072246
0.00018178002116
0.00019232294354
0.00020271958348
0.000212789538279
0.000222292188636
0.000230998060799
0.000238884639655
0.000246114672688
0.000252852902004
0.00025920477595
0.000265245843987
0.000271040876968
0.000276643649485
0.00028209652013
0.000287433172501
0.000292681222723
0.000297863747817
0.00030300029175
0.000308107682533
0.000313200699122
0.000318292307829
0.00032339779459
0.000328550080931
0.00033373548955
0.000338966456075
0.000344256947668
0.000349624481338
0.000355090093359
0.000360672421017
0.000366339227761
0.000372148647205
2.82754814566e-05
4.78661058822e-05
5.4514740947e-05
6.04993135792e-05
7.02564293054e-05
6.63714138982e-05
6.53416035675e-05
6.54464857524e-05
6.67062281634e-05
6.9740517454e-05
7.40374099013e-05
7.9200420689e-05
8.49252552277e-05
9.15424367451e-05
9.90622096198e-05
0.000107110746659
0.000115518228367
0.000124373810742
0.000133626607264
0.000143101114667
0.000152735044122
0.000162551749721
0.000172506658051
0.000182532543627
0.000192628537214
0.000202816099746
0.000213054524122
0.000223274873729
0.000233385438165
0.000243295047814
0.000252869381342
0.000261931761013
0.000270318433217
0.000277990704129
0.00028504612051
0.000291609284143
0.00029777370842
0.000303610023878
0.000309179095078
0.000314532957751
0.000319714097735
0.000324757116684
0.000329690818386
0.000334539621472
0.000339324538641
0.000344063996001
0.00034877448894
0.000353471291562
0.000358181258538
0.000362922809988
0.000367689404455
0.000372497610207
0.000377366623117
0.000382319629205
0.00038738277793
0.00039257915374
0.000397885961777
0.000403386400716
2.90222929002e-05
4.93192972862e-05
5.63171118295e-05
6.2597126191e-05
7.27109349227e-05
6.89140286288e-05
6.7866310593e-05
6.7907892642e-05
6.90258094925e-05
7.17643302327e-05
7.55352472566e-05
7.98239051714e-05
8.42539033206e-05
8.92862888807e-05
9.54423678359e-05
0.000102684560308
0.000110554760942
0.00011885222791
0.0001276361304
0.000136844199752
0.000146293558646
0.000155884126129
0.000165630119002
0.000175482736455
0.000185364602016
0.000195251572467
0.000205156434255
0.000215053840049
0.000224917221335
0.000234752260539
0.000244571981038
0.000254348963124
0.000264034981877
0.000273564880541
0.000282867141228
0.000291838548275
0.000300346327638
0.000308271323268
0.000315573461525
0.000322309588204
0.000328570597285
0.000334435321619
0.000339967457674
0.000345222784435
0.000350250196479
0.000355090923903
0.000359779375553
0.000364344653956
0.000368811751872
0.000373202437101
0.000377536001141
0.000381829733367
0.000386101586958
0.000390396132889
0.000394691905617
0.000399005532411
0.000403354592611
0.000407759553842
0.000412244242801
0.000416833800604
0.000421548587079
0.000426365887156
0.000431378228229
2.97685641443e-05
5.07686923307e-05
5.81147622352e-05
6.46878669843e-05
7.51713525717e-05
7.1487800578e-05
7.04782267814e-05
7.05226538462e-05
7.16070693725e-05
7.42590586018e-05
7.79208466843e-05
8.20909371399e-05
8.63476491172e-05
9.10998799982e-05
9.68056766558e-05
0.000103358210309
0.00011023869282
0.000117295468788
0.000124759925163
0.000132879805416
0.000141611494678
0.000150728831228
0.000160103359986
0.000169710262022
0.000179477859491
0.000189311132888
0.000199155126947
0.000209006615116
0.000218832230789
0.000228596611389
0.000238292066927
0.000247928637858
0.000257493982024
0.000266977589497
0.000276382443509
0.000285713919628
0.000294950329176
0.000304054928198
0.00031297561519
0.000321651704786
0.000330001580176
0.000337923663417
0.000345330004114
0.000352184934489
0.00035852142351
0.000364405192212
0.000369901170582
0.000375065770002
0.000379949617755
0.000384598104136
0.00038905060604
0.000393340775429
0.000397497547667
0.00040154608871
0.000405508552214
0.000409404711059
0.000413252446228
0.000417074935511
0.000420909886286
0.000424736842692
0.000428572560618
0.000432434979749
0.000436344282616
0.000440322703743
0.000444391876985
0.000448567137072
0.000452823603006
0.000457257059767
3.06007874573e-05
5.23488453471e-05
6.00365938808e-05
6.68885209455e-05
7.77410562503e-05
7.41531781254e-05
7.31887863726e-05
7.32516205204e-05
7.43298120686e-05
7.69431815642e-05
8.05707256159e-05
8.47308280844e-05
8.89610310583e-05
9.36548539771e-05
9.92626996484e-05
0.000105687468548
0.00011242120527
0.000119257655462
0.000126393534836
0.000134039668735
0.000142119086674
0.000150383348258
0.000158779384227
0.00016741222128
0.000176382115322
0.000185655179348
0.000195129283784
0.000204733546368
0.000214433485467
0.00022417171299
0.000233894076319
0.000243568188614
0.000253186713969
0.000262728602961
0.000272174937129
0.000281521143093
0.000290772693276
0.000299923617903
0.000308966901148
0.000317901123862
0.000326724396829
0.000335418409874
0.000343950294914
0.000352275621356
0.000360341819659
0.000368081954811
0.000375417727275
0.000382283507929
0.00038865024724
0.000394537629211
0.000399993890105
0.000405072345634
0.000409822674622
0.000414290781868
0.000418518697692
0.000422543788708
0.00042639869378
0.000430111927742
0.000433708584696
0.000437210944962
0.000440638908085
0.000444012264319
0.000447380127778
0.000450717720212
0.000454040161726
0.000457363372744
0.0004607043573
0.000464081551292
0.000467514179813
0.000471019351684
0.00047460712227
0.00047825092072
0.000482047330038
3.13125862707e-05
5.35607312038e-05
6.06867873427e-05
6.48742376743e-05
7.05588788606e-05
8.12043494945e-05
7.73860632456e-05
7.6262555447e-05
7.62467780488e-05
7.72659033413e-05
7.98207190128e-05
8.34286329053e-05
8.76198680064e-05
9.188344249e-05
9.65978342913e-05
0.00010221341491
0.000108648324069
0.00011540911566
0.000122245530604
0.000129347438954
0.000136925017048
0.000144907010295
0.000153046183325
0.00016124840765
0.000169594531747
0.000178165547794
0.00018691623336
0.000195746472035
0.00020464598383
0.000213670078937
0.000222858708618
0.000232189123506
0.00024161259002
0.000251091204165
0.000260597866155
0.000270092696107
0.000279539102349
0.00028891328492
0.00029820495634
0.000307399479557
0.000316482860388
0.000325449386407
0.000334299421419
0.000343028440534
0.000351629157289
0.000360095435953
0.000368419924797
0.000376584269206
0.000384558545461
0.00039230330996
0.000399772648602
0.000406911619098
0.000413659905812
0.00041996845402
0.000425815374786
0.000431213551392
0.000436199670783
0.000440818007058
0.00044511241618
0.000449124638163
0.000452893634555
0.000456454765816
0.000459839512629
0.000463075779211
0.000466188380587
0.000469199491508
0.000472129103511
0.000475001616988
0.000477860328492
0.000480677816039
0.000483470001863
0.000486252405719
0.00048904107789
0.00049185253437
0.000494702907403
0.000497605112686
0.000500564911157
0.000503555590779
0.000506673411511
3.21784988964e-05
5.52389527147e-05
6.27145952375e-05
6.70935986749e-05
7.29816831823e-05
8.38972962016e-05
8.01455613446e-05
7.89261550944e-05
7.85752835957e-05
7.87624982045e-05
7.99193088452e-05
8.26568808375e-05
8.64662210337e-05
9.08405877761e-05
9.52424347248e-05
0.00010006843033
0.000105782579622
0.000112316388586
0.000119183214154
0.000126101495089
0.000133260009791
0.000140878181719
0.000148898867097
0.000157085177032
0.000165314708587
0.000173660883834
0.000182205348095
0.000190907143629
0.000199661068305
0.000208431735416
0.000217256488592
0.000226165183903
0.000235134462393
0.000244126218585
0.000253145593576
0.000262226703406
0.000271386134031
0.000280608480919
0.000289865518746
0.000299132425779
0.000308387853181
0.000317603419794
0.000326750679656
0.000335808726979
0.000344765568905
0.000353608536453
0.000362325267132
0.000370907478269
0.000379351902995
0.000387652542768
0.000395800918032
0.000403787333528
0.000411601153403
0.00041922383442
0.000426628091714
0.000433779498305
0.000440638733439
0.000447161409303
0.000453301782068
0.000459023917937
0.000464312618295
0.000469177864589
0.000473648907516
0.000477763157561
0.000481559497855
0.000485075928861
0.00048834852962
0.000491410604901
0.000494292283727
0.000497020612167
0.000499619855354
0.0005021117851
0.000504517910047
0.000506892117691
0.00050920438409
0.000511468605013
0.000513699428667
0.000515911148773
0.000518118054108
0.000520334185149
0.000522572429145
0.00052484194892
0.000527145269938
0.000529456967483
0.000531871953231
3.29253771798e-05
5.66845313736e-05
6.42469669789e-05
6.7886721172e-05
7.08980011953e-05
7.64067752122e-05
8.73695868931e-05
8.34293307673e-05
8.20688401214e-05
8.16491208247e-05
8.17772292248e-05
8.28345327929e-05
8.53925704819e-05
8.89246663163e-05
9.28524441421e-05
9.6521752204e-05
0.000100243211325
0.000104648017388
0.000110171432732
0.000116659738196
0.000123557473307
0.000130542877182
0.000137787686169
0.000145511316952
0.000153658579099
0.000161992531534
0.000170366855866
0.000178847182016
0.000187521173755
0.00019635675785
0.000205251332812
0.000214152107497
0.000223086492947
0.000232082977005
0.000241118789162
0.000250149827507
0.000259165119928
0.00026818612394
0.000277224372043
0.000286267913541
0.000295302050359
0.000304331513771
0.000313377895346
0.000322447130179
0.000331526934645
0.000340597163268
0.000349637093285
0.000358629782303
0.000367552788656
0.000376383010088
0.000385100829951
0.000393693924424
0.000402150265768
0.000410458175812
0.000418608191692
0.00042659459506
0.000434410361508
0.000442046332961
0.000449491747856
0.000456734528981
0.000463757258419
0.000470536123331
0.000477042179604
0.000483243253717
0.000489104609718
0.00049459250843
0.000499681682719
0.000504362688252
0.000508644675645
0.000512551983413
0.000516116658685
0.00051937316366
0.000522355917432
0.000525098075846
0.000527630673255
0.000529982160803
0.000532178362133
0.000534242630962
0.000536196304163
0.000538065537665
0.000539896131551
0.000541654077404
0.000543354964691
0.000545013025259
0.000546641796213
0.00054825419531
0.000549862243388
0.000551476237735
0.000553102592075
0.000554741894433
0.000556371292601
0.000558083252206
3.36744059578e-05
5.82381223105e-05
6.61819812192e-05
7.00129287104e-05
7.31667399784e-05
7.88783242881e-05
9.0124787599e-05
8.62909175583e-05
8.49187306811e-05
8.43785905867e-05
8.41587488052e-05
8.43622804301e-05
8.55134789025e-05
8.8189394146e-05
9.1834453983e-05
9.5862874882e-05
9.95827025873e-05
0.000103298849198
0.000107630913362
0.000112986688643
0.000119163508254
0.000125533364533
0.00013172780154
0.000137950071726
0.000144622410453
0.000152003745767
0.000159994136056
0.000168300959353
0.00017673481424
0.000185334178771
0.000194175564138
0.000203221099789
0.000212358951555
0.000221516910261
0.000230710342462
0.000239968008467
0.000249270036384
0.000258570412629
0.000267846281963
0.000277108017866
0.000286363724203
0.000295599233187
0.000304793922936
0.000313942991179
0.000323058572407
0.000332144768281
0.000341194362254
0.000350200482664
0.000359164637708
0.000368099028988
0.000377003773284
0.000385868421103
0.000394676865923
0.000403411234262
0.000412056885062
0.000420595914363
0.000429009529477
0.000437281021431
0.000445398640172
0.000453351869604
0.000461130513916
0.000468726020757
0.000476131999843
0.000483341694983
0.000490346594211
0.000497137046953
0.000503701406579
0.000510024695941
0.000516087366133
0.000521866380258
0.000527336639771
0.000532472073495
0.000537248740546
0.000541649759636
0.000545670299546
0.000549319333554
0.000552617608345
0.000555592641244
0.000558274690454
0.000560694499594
0.000562882055287
0.000564865757072
0.000566671937447
0.000568324734632
0.000569846178653
0.000571258701886
0.000572620287992
0.000573890530925
0.000575085351734
0.000576218646799
0.000577303272954
0.000578351272135
0.000579373826978
0.000580380960289
0.000581380800406
0.000582377833877
0.000583371747541
0.000584343108579
0.000585380638729
3.4483230149e-05
5.98925414271e-05
6.82230535846e-05
7.22281720999e-05
7.55096866682e-05
8.14278975365e-05
9.29982781917e-05
8.91740999787e-05
8.77690900452e-05
8.72139493262e-05
8.69878418512e-05
8.71623601396e-05
8.82236856895e-05
9.07153861992e-05
9.4106208877e-05
9.78068303489e-05
0.000101046136609
0.000103989497984
0.0001071849508
0.000111232050156
0.000116466366349
0.000122622845805
0.000129027346403
0.000135258721618
0.00014148822331
0.000148121194899
0.00015539315275
0.000163165224749
0.000171088396946
0.000178956525511
0.000186873112555
0.000195068684151
0.000203686533756
0.000212683272671
0.000221912232679
0.00023126134261
0.000240719855854
0.000250298008706
0.000259964150091
0.000269657951391
0.000279339343971
0.000289004253777
0.000298656830873
0.000308281952719
0.000317854999804
0.00032736313322
0.000336808162297
0.000346189922066
0.000355498469211
0.000364722650698
0.000373859065174
0.000382914364412
0.000391889600082
0.000400780561076
0.000409583578697
0.00041829831834
0.000426930891599
0.000435479101826
0.000443934712935
0.000452285208689
0.000460516746941
0.00046861745891
0.000476574086452
0.000484372612696
0.000492000887083
0.000499449245909
0.000506709810853
0.000513774917979
0.000520638322722
0.00052729459307
0.000533738305084
0.000539962656663
0.000545959972078
0.000551720620993
0.000557232584281
0.000562480680334
0.00056744760978
0.00057211446782
0.000576462451071
0.000580475165157
0.00058414193348
0.000587461195735
0.000590441565818
0.00059310071498
0.000595462000506
0.000597551490646
0.000599396048836
0.000601022176322
0.000602455240052
0.000603719001383
0.000604835451234
0.0006058251981
0.000606716643046
0.000607547960481
0.000608284412172
0.000608941148429
0.000609531727491
0.000610068513704
0.000610562762066
0.000611024587117
0.00061146272824
0.000611883988004
0.000612291919663
0.00061268629196
0.000613051674456
0.000613471808225
3.52973865278e-05
6.15389800743e-05
7.01462003199e-05
7.40313449795e-05
7.63991399325e-05
7.91205404871e-05
8.49148918834e-05
9.65920630331e-05
9.22398148648e-05
9.03894530395e-05
8.96320976829e-05
8.93089033787e-05
8.93906727391e-05
9.03020216426e-05
9.25733412771e-05
9.57684850257e-05
9.93750756075e-05
0.000102596249962
0.000105537040065
0.000108716187272
0.000112718557736
0.000117869252961
0.000123887947854
0.000130039502448
0.000135819280396
0.000141336646159
0.000147043513725
0.00015340844948
0.000160635292089
0.000168522302206
0.000176649301396
0.000184745876997
0.000192877907741
0.000201254942534
0.000209997468204
0.000219029976841
0.000228168778013
0.000237300807675
0.000246476987531
0.000255815332208
0.000265389519654
0.000275181165233
0.000285112935536
0.000295116352407
0.000305162754782
0.000315237256856
0.000325310029978
0.000335341626453
0.000345304845814
0.000355186866249
0.000364982028704
0.000374677907274
0.000384259597585
0.000393719140235
0.000403055307581
0.000412266347654
0.000421346686485
0.000430290983018
0.000439097801072
0.000447771956416
0.000456314660203
0.000464724859607
0.000473001551107
0.000481145026996
0.000489158865599
0.000497041684437
0.000504788143744
0.000512390137861
0.000519838885183
0.00052712623894
0.000534243800576
0.000541182583591
0.000547935080466
0.000554494927154
0.0005608571326
0.000567016851811
0.000572970267656
0.000578713684799
0.000584243301912
0.000589554213287
0.000594640767804
0.000599495612558
0.000604109577423
0.000608471280772