/*--------------------------------*- C++ -*----------------------------------*\
| =========                 |                                                 |
| \\      /  F ield         | OpenFOAM: The Open Source CFD Toolbox           |
|  \\    /   O peration     | Version:  2.3.1                                 |
|   \\  /    A nd           | Web:      www.OpenFOAM.org                      |
|    \\/     M anipulation  |                                                 |
\*---------------------------------------------------------------------------*/
FoamFile
{
    version     2.0;
    format      ascii;
    class       volScalarField;
    location    "526";
    object      p;
}
// * * * * * * * * * * * * * * * * * * * * * * * * * * * * * * * * * * * * * //

dimensions      [0 2 -2 0 0 0 0];

internalField   nonuniform List<scalar> 
10011
(
-13.404793464
-16.133808844
-17.0384974787
-17.3652167263
-17.6459874542
-17.9356427543
-18.2333359894
-18.5520240464
-18.9069433835
-19.3117029367
-19.7813308405
-20.3358897414
-21.0045988481
-21.8328043336
-22.8932378647
-24.3163217127
-26.4187633179
-30.3285531767
-17.1930350376
-17.5715559379
-17.7391674482
-17.7806812655
-17.9039329256
-18.100743514
-18.3422925064
-18.6252006433
-18.9560293916
-19.3436334698
-19.8001053489
-20.3433949396
-21.0008564492
-21.8136649101
-22.8463565614
-24.2079546466
-26.0825526173
-28.5531955399
-17.0377808851
-16.905895392
-17.1638441391
-17.3844235842
-17.6228136355
-17.8947754591
-18.1884695219
-18.5070792252
-18.861457931
-19.263433996
-19.7266140457
-20.2689513456
-20.9149985578
-21.6999289035
-22.6754296842
-23.9140810136
-25.5004218171
-27.3872410776
-16.9494236407
-16.9615516063
-17.2903669215
-17.544142534
-17.7700023709
-18.0158270992
-18.2840281191
-18.5795018962
-18.9124720782
-19.2937452433
-19.735309017
-20.2522591147
-20.8645348349
-21.5986047136
-22.4878123169
-23.5660611908
-24.8384241799
-26.1620897058
-16.9788107028
-17.0506778984
-17.3189511653
-17.5400929634
-17.7451551978
-17.9765745516
-18.2365304614
-18.5266067246
-18.8539619569
-19.2272340897
-19.656167224
-20.1526742989
-20.7312584331
-21.4085111961
-22.199715618
-23.1073452314
-24.0896877598
-24.9870739807
-17.042064936
-17.1146459364
-17.3303138658
-17.537037542
-17.7399627841
-17.9677329456
-18.2228838053
-18.5064253186
-18.8241376208
-19.1832274731
-19.5913351907
-20.0568534346
-20.5885767036
-21.1935347566
-21.8716992154
-22.6040587079
-23.3283505335
-23.9037027064
-17.0920009939
-17.1550568401
-17.3355610719
-17.529986928
-17.7275361716
-17.9468681905
-18.1917110194
-18.4633047213
-18.7660032862
-19.105094445
-19.4857186162
-19.9125312418
-20.3885898174
-20.9125599864
-21.4733467659
-22.0407957495
-22.5510812117
-22.8974319832
-17.1255144791
-17.1821176763
-17.3399373297
-17.5213340896
-17.7107368913
-17.9205519381
-18.1544547893
-18.4133886877
-18.7002293046
-19.0185011598
-19.3711106137
-19.7596265879
-20.182889205
-20.6342843002
-21.0972551812
-21.5389969841
-21.9025369427
-22.1101574694
-17.1494759697
-17.2013774568
-17.3410607664
-17.5096921376
-17.6902392447
-17.8903130927
-18.1129474936
-18.3586234739
-18.6290037775
-18.9260495969
-19.2507571286
-19.6022351476
-19.9762714566
-20.3629486332
-20.7432465498
-21.0852353633
-21.3407104581
-21.4531808124
-17.1687282152
-17.2157812461
-17.337838191
-17.4921911045
-17.6617218104
-17.8497505453
-18.0583049938
-18.2873320091
-18.537232879
-18.8083478146
-19.099787551
-19.4084397816
-19.7276796117
-20.0455590872
-20.3426709627
-20.5905366823
-20.7514416405
-20.7872392187
-17.1805660129
-17.2224237314
-17.3278658839
-17.4666504025
-17.6227187557
-17.7959861018
-17.9872795512
-18.1958627011
-18.4208897223
-18.6611404702
-18.9140296461
-19.1746894123
-19.4349770259
-19.6823513083
-19.8989117681
-20.0613681497
-20.1425492891
-20.1189996554
-17.1816135167
-17.2180493567
-17.3079127873
-17.4299479216
-17.5699612978
-17.7255142909
-17.8961158577
-18.0802382165
-18.2759002803
-18.4805317527
-18.6902240889
-18.8990147394
-19.0982700334
-19.2762073833
-19.4178101226
-19.5056513522
-19.5218357062
-19.4536310026
-17.1678771482
-17.1987670682
-17.2738430662
-17.3780908955
-17.4995269105
-17.6343007284
-17.7806863627
-17.9363649865
-18.0984399338
-18.2633542229
-18.4264069375
-18.5813047438
-18.719903491
-18.8322063571
-18.9067619746
-18.9317204029
-18.8964774562
-18.7954308584
-17.1347232415
-17.1600005836
-17.2208137735
-17.3064210058
-17.4069985195
-17.5180582335
-17.6369195062
-17.7606167003
-17.8856607406
-18.0079886164
-18.1227193459
-18.2239606944
-18.3048137348
-18.3576217843
-18.3745021735
-18.3482487244
-18.2734272328
-18.1487310131
-17.0770724415
-17.0967223538
-17.1436058448
-17.2099447526
-17.2878523017
-17.3727736584
-17.4614760692
-17.5506319261
-17.636559688
-17.7152115987
-17.7821055902
-17.8323128784
-17.860595609
-17.8617092348
-17.8308481775
-17.7642535249
-17.6598109792
-17.5185296621
-16.9898276365
-17.0039058539
-17.0371902908
-17.0840457474
-17.1382758899
-17.1956432852
-17.2527937402
-17.3064069792
-17.3530239296
-17.3890726786
-17.4108987696
-17.4148381404
-17.3973754756
-17.3553817596
-17.2863939626
-17.1889498827
-17.0628509531
-16.9101603273
-16.8686332561
-16.8772757631
-16.8975160629
-16.9253631073
-16.956085317
-16.9859902789
-17.0119739243
-17.031085336
-17.0404405454
-17.0372646762
-17.0189523472
-16.9831489053
-16.9278642557
-16.8516085451
-16.7535209681
-16.6335210361
-16.4923951605
-16.3325760793
-16.7225552577
-16.7265885596
-16.7358814669
-16.7476326796
-16.7582441815
-16.7645997064
-16.7640529787
-16.7542351652
-16.732991257
-16.6984066908
-16.6488576686
-16.5830648542
-16.5001505334
-16.3996938152
-16.2817666754
-16.1469931905
-15.9965637451
-15.8329662273
-16.5772735359
-16.5782142307
-16.5800883794
-16.5808037535
-16.577386684
-16.5670929185
-16.5477261513
-16.5174977778
-16.4749061099
-16.4187394522
-16.3481126838
-16.262490419
-16.1617011786
-16.0459459576
-15.9157896457
-15.7721830555
-15.6164509384
-15.4510636247
-16.4468515088
-16.4459578862
-16.4435704926
-16.4379199381
-16.42600787
-16.4051622042
-16.3735931316
-16.3300349349
-16.2735056494
-16.2033196002
-16.1191213747
-16.0208784066
-15.9088646572
-15.7836458256
-15.6460522363
-15.4971882875
-15.3384111311
-15.1721701007
-16.3317420433
-16.3297495735
-16.3255757124
-16.3173684907
-16.3011851347
-16.2741856106
-16.2350757907
-16.183081019
-16.1176158397
-16.0383956373
-15.9454666889
-15.8391565685
-15.7200374973
-15.5889052578
-15.4467481377
-15.2947557691
-15.1342959744
-14.9678524583
-16.2308443209
-16.2277931948
-16.2239776659
-16.2166208711
-16.1993519583
-16.1692141363
-16.1257362607
-16.0685951176
-15.9974722878
-15.9124040731
-15.8137665752
-15.7021632502
-15.5783799937
-15.4433682986
-15.2982139158
-15.1441465493
-14.9825103702
-14.8158137731
-16.1427374786
-16.1374967204
-16.1363007543
-16.1333127071
-16.1174734895
-16.0863721546
-16.0408798656
-15.9810220906
-15.906652792
-15.8181067082
-15.7160413994
-15.6012652839
-15.4747133235
-15.3374437598
-15.1906079501
-15.0354649668
-14.8733537178
-14.706952662
-16.0661946324
-16.0558463792
-16.0599261656
-16.0642542292
-16.0510296338
-16.0201854374
-15.9741303496
-15.9128514557
-15.8363745892
-15.7454369738
-15.640997374
-15.5240435024
-15.3956289157
-15.2568874633
-15.1089980357
-14.9531916869
-14.7906879627
-14.6241090297
-15.9997345856
-15.9803332446
-15.9970538453
-16.0116957481
-16.0009049823
-15.9716490161
-15.927451689
-15.867246508
-15.7910084312
-15.6998381305
-15.5949346176
-15.4774275424
-15.3484852773
-15.2093323317
-15.0612040251
-14.9053498696
-14.7429572451
-14.5769736432
-15.9384947859
-15.892983142
-15.938965606
-15.9683642917
-15.9556373387
-15.923524064
-15.8777138434
-15.8161514012
-15.7388812349
-15.6471961784
-15.5422559911
-15.4250979519
-15.2968302885
-15.1586369596
-15.0117068722
-14.857195881
-14.6960113944
-14.5305378749
-15.9206163145
-15.7890203788
-15.888810673
-15.9601575825
-15.9672515435
-15.9466287904
-15.9058996371
-15.844686014
-15.7652890486
-15.6703745317
-15.561762388
-15.4408623833
-15.309025302
-15.1675908268
-15.0178491412
-14.8610223362
-14.6980265911
-14.5315965084
-16.0111984408
-15.6633355032
-15.6995532308
-15.7426910938
-15.7580809271
-15.7621697469
-15.746679829
-15.7076990136
-15.6476079577
-15.5692615071
-15.4746763455
-15.3655782149
-15.2436805274
-15.1106713242
-14.9681657474
-14.8176838268
-14.6602624791
-14.4983722722
-16.306615123
-16.3549436928
-16.3479401714
-16.215171475
-16.1051452515
-16.0249189209
-15.9468041245
-15.860389435
-15.7645775951
-15.6591783257
-15.543864991
-15.4187265778
-15.2843328984
-15.1415618727
-14.9914788402
-14.8353255674
-14.6742182877
-14.512434631
-12.6113400857
-14.7879290045
-15.5463354322
-15.706845569
-15.76465337
-15.7913571145
-15.7815520531
-15.7402444136
-15.6754395655
-15.5919353256
-15.4923617596
-15.3787114414
-15.252825028
-15.1164497374
-14.9712730133
-14.819054958
-14.6615042665
-14.5060179195
17.690875452
17.849076783
18.3872631135
18.0878279171
17.8101839718
17.6732514296
17.5889210089
17.5090848592
17.432387832
17.3634144165
17.3021035145
17.2468813978
17.1967453636
17.151194836
17.1099429211
17.0727700599
17.0394529404
17.0098486283
16.9839252036
16.9618018209
16.9437666861
16.9303006199
16.9221117517
16.9202189912
16.9262046826
16.9426894319
16.9740136049
17.0307690113
17.1154994593
17.0674667898
17.2659387511
17.4561570885
17.7190190828
17.9025919068
18.2009985889
18.0610859182
17.8271651959
17.6851835268
17.5940971529
17.5121242545
17.4346037722
17.3649080599
17.3030105075
17.2473913036
17.1970051476
17.1513383328
17.1100382954
17.0728045581
17.0394231502
17.0097592998
16.9837649108
16.961547935
16.9434073184
16.929834863
16.9215169789
16.9194176753
16.9250387407
16.9408275767
16.9705432253
17.0227985991
17.0843643779
16.340565033
16.507594452
16.6552254728
16.8390185259
17.0788362845
17.2455981384
17.4357546541
17.6644994403
17.8247160509
17.9989087379
17.9433302693
17.7788126424
17.6534603092
17.5673020223
17.4912434532
17.4188572224
17.3526538977
17.293183949
17.2394118047
17.1904835912
17.1459618543
17.1055559109
17.0690246033
17.036196538
17.006977665
16.9813698015
16.9593974491
16.941268342
16.9275365262
16.9188763029
16.9161188853
16.9205321778
16.9340579536
16.9591051884
17.0006479494
17.0349137599
15.6552588103
15.8153611654
15.9528649982
16.1270145913
16.3526685456
16.4840515534
16.6401514007
16.8356705419
17.0577070124
17.2224528985
17.4021577272
17.5946862611
17.7424601662
17.8666348302
17.8526793034
17.7413238452
17.6342500718
17.552208418
17.4795423075
17.4102119511
17.345916536
17.2875769586
17.2345950576
17.1862796248
17.1422354601
17.1021988835
17.0659477915
17.0333137621
17.0041963965
16.978575286
16.9565076509
16.938147774
16.9239478628
16.914517988
16.9105106158
16.9128589124
16.9228185196
16.9412519156
16.969813831
16.9798353059
14.982254545
15.1405898274
15.2731649503
15.4428026541
15.6670961404
15.7909015675
15.9381149265
16.1225129431
16.3286475533
16.4693690055
16.6288257028
16.8199913292
17.0168277586
17.1829190386
17.3511721918
17.5203739513
17.6555051112
17.7521385304
17.7555872005
17.6812785266
17.5943696445
17.5203193742
17.4534468462
17.3893279583
17.329030312
17.2736204862
17.2229013988
17.1763981839
17.1338058881
17.0949205678
17.0595669077
17.0276061011
16.9989532772
16.9735880583
16.9515549455
16.9330313875
16.9183746936
16.9080048502
16.9023832237
16.9020726569
16.9076052049
16.9184498877
16.9338377578
16.9234012017
14.3115098986
14.4688163826
14.5987430392
14.7668142507
14.9934246257
15.1145707932
15.2580613103
15.4388017873
15.6430339756
15.7784906754
15.9300033448
16.1113583792
16.2946432236
16.4456479572
16.6058674068
16.7871192745
16.9708260396
17.13628433
17.2947795038
17.4459825632
17.5680712376
17.6497323448
17.6636566412
17.6167699854
17.5496928397
17.4856646097
17.4254419092
17.3668432703
17.3107927917
17.2584786557
17.2100884514
17.1654059524
17.1242496381
17.0864883102
17.0519974995
17.0206682971
16.992426985
16.9672453812
16.9451406995
16.9263267972
16.9110466005
16.8994727613
16.8918651644
16.8884120471
16.8889705793
16.8918994865
16.8948581524
16.867634371
13.4773125895
13.6345566355
13.7537404875
13.9006979026
14.0823693977
14.3182653683
14.438940437
14.5813916513
14.7624663547
14.9688526579
15.1033757243
15.2520736695
15.4308620004
15.6111854059
15.7575016098
15.9109470525
16.0841911958
16.2587609918
16.4172267292
16.5780151601
16.7504187829
16.9233047172
17.0833171484
17.2323517607
17.3694555472
17.4804357991
17.5538480188
17.5749869631
17.547800058
17.4978995798
17.4443511199
17.3913412812
17.3386863945
17.287423919
17.238801487
17.1932917603
17.1509115033
17.111604025
17.0753123857
17.0419644857
17.0114841294
16.9838111695
16.958910343
16.9367958551
16.9176846174
16.9016774597
16.8887254483
16.878884884
16.8719900712
16.867323329
16.8624405236
16.8541039115
16.8134125611
12.631956208
12.7951959175
12.9155882744
13.0633238065
13.2473820626
13.4867136101
13.5997275942
13.7267401173
13.8950337522
14.0876945916
14.2974305894
14.4304158664
14.5782109095
14.7578668952
14.9385786463
15.0838156467
15.2349199208
15.4058119018
15.5777183774
15.7328148039
15.8889438995
16.0562009869
16.224758068
16.3846135678
16.5437134458
16.7081151715
16.8713955497
17.024448913
17.1651770056
17.2915435628
17.3938403958
17.462591041
17.4893069801
17.4767592121
17.441520392
17.3984441165
17.3530774751
17.3066890603
17.2605632704
17.216008003
17.1737157856
17.1339164465
17.0966848951
17.0620454379
17.0299821308
17.0004539683
16.9734148816
16.9488164597
16.9267263629
16.9072910922
16.8904169356
16.8759213161
16.8636592472
16.8531434915
16.8431991963
16.8308586962
16.8124726796
16.7611456339
11.7650220922
11.9353259105
12.0573588086
12.2064616469
12.3936108142
12.6411824119
12.7572223859
12.8859439521
13.0563729955
13.2502025493
13.4586215359
13.5845634666
13.7201017686
13.8936780276
14.0850473567
14.2672971649
14.4114891704
14.5622562732
14.7336908291
14.9058213121
15.0606408941
15.2154794682
15.3811191811
15.5478741833
15.7057584962
15.8624019126
16.0247183824
16.1880769151
16.3465459369
16.5030347249
16.6607635198
16.8158039506
16.9617079883
17.0949998718
17.2129233074
17.3085433901
17.374598648
17.4058993755
17.4045815692
17.381695894
17.3485562942
17.3109011621
17.2709054373
17.2301172347
17.18990635
17.1511248849
17.114179342
17.0792668867
17.0464902487
17.0158872966
16.9874508979
16.9611475349
16.9369179482
16.9149211854
16.8951634054
16.8773283607
16.86118837
16.8464073244
16.8322209175
16.8171154887
16.7978321574
16.770634331
16.7110070032
10.8711623839
11.0496366101
11.1741097709
11.3251087146
11.5160224186
11.7733390784
11.8939852998
12.0250209229
12.1989437828
12.397027817
12.6111664453
12.7408331605
12.8781964859
13.0537716902
13.2459921425
13.4255646104
13.5641143642
13.7077938536
13.8779895036
14.0605689483
14.2352065432
14.3901368744
14.5453137011
14.711463797
14.8785288506
15.036563029
15.1926627746
15.354132194
15.5166779847
15.6746180649
15.8308860196
15.9895771629
16.1486061752
16.3044004858
16.4575406482
16.6093370627
16.7571227608
16.8961799037
17.0228349074
17.1340381449
17.2246301182
17.2892019775
17.32443552
17.332023074
17.3195613413
17.2956127834
17.265526317
17.231933544
17.1965857807
17.1609048099
17.1258533622
17.0919770887
17.0595811343
17.028841515
16.9998468255
16.9726221286
16.947145496
16.9234109318
16.9015452059
16.8813956794
16.8625610083
16.8447394726
16.8274200129
16.8096172186
16.7895870151
16.7639593314
16.7291095442
16.6630610526
9.94723523129
10.1328137101
10.2597613939
10.4133445704
10.6090652726
10.8777113036
11.0045580239
11.1384706088
11.316701334
11.5204360783
11.7417227069
11.8764937043
12.0167672894
12.1965437568
12.3936715259
12.5771327934
12.7188663455
12.8643423867
13.0359177551
13.2187082714
13.3912622251
13.5426615554
13.6948347176
13.8623659385
14.0381109651
14.2086973806
14.3678710608
14.5249161233
14.6871621812
14.8503264445
15.008886605
15.1654464598
15.3242923198
15.4837268497
15.6405570351
15.7956596115
15.9512268373
16.1063274967
16.2587588584
16.4081036829
16.5545122033
16.6959329963
16.8287662887
16.9495990837
17.0554207693
17.1422572079
17.2061077975
17.244778689
17.2596185356
17.2559986839
17.240413782
17.2175879034
17.1902892514
17.1603845954
17.1293277761
17.0981525989
17.0675079821
17.0377886662
17.0092352208
16.981981449
16.9560795241
16.9315060019
16.908392141
16.8867281287
16.866151945
16.846315571
16.8268241627
16.8070129224
16.7857311153
16.7610951537
16.7297540121
16.6883039522
16.6173183141
8.80986774321
9.005792211
9.13391067327
9.27811375098
9.45123650992
9.65924199731
9.94547534428
10.0807373671
10.218420166
10.4026845783
10.6143925119
10.8446537865
10.9856368628
11.1294603417
11.314583157
11.5181755445
11.7069010391
11.8531378803
12.0019533228
12.177577399
12.3647398559
12.54097331
12.6957491838
12.8501259825
13.0190132439
13.1950728229
13.3646856087
13.5223458439
13.679036486
13.8439732884
14.0141441553
14.1814645282
14.3421138682
14.5003012647
14.6604621467
14.8210512258
14.9790948748
15.1353533223
15.2921440328
15.4489284681
15.6039516689
15.7572704984
15.9099155215
16.0613936443
16.2102447957
16.3556660312
16.4971617169
16.6329933921
16.7602993838
16.8760819626
16.9775638977
17.0616006642
17.1252221425
17.1669346669
17.1878147066
17.1917534983
17.1837113916
17.1677374327
17.1465326644
17.1219930324
17.0955777628
17.0683587214
17.0410556616
17.0141330005
16.9878850716
16.9624844257
16.9380070307
16.9144915765
16.8920623627
16.8705691851
16.8495996086
16.8288095433
16.8077099248
16.7855135464
16.7609555865
16.7320854965
16.6956595814
16.6485427304
16.5737710479
7.62501798737
7.83121942348
7.96409261513
8.11215329038
8.29123878698
8.50783440013
8.80842940781
8.94806993277
9.08233233165
9.25114424053
9.45444959817
9.67743964375
9.91682290838
10.0628091987
10.2102800851
10.4024222461
10.6144528637
10.809618921
10.960873899
11.113748994
11.2945977554
11.4875627234
11.6688808772
11.8285298496
11.9869918801
12.1599924732
12.3401511921
12.5134759562
12.6745754333
12.8337387283
13.0002268077
13.1711197939
13.3385372215
13.499304425
13.6587925245
13.822368452
13.9889258917
14.1538534346
14.3146766422
14.4731788271
14.6318963613
14.7904764095
14.9473944905
15.1027490212
15.2577114158
15.4121613356
15.5651152533
15.716332133
15.8661765459
16.0142718577
16.159554281
16.3011067436
16.4381160298
16.569026149
16.6914912834
16.8029388665
16.9009066025
16.9828632467
17.0465775996
17.0910045616
17.1170041528
17.1274551603
17.1261810074
17.1165945091
17.1012140886
17.0818942985
17.0600715901
17.0368282109
17.012926654
16.9888813202
16.9650281725
16.941569417
16.9185906601
16.8962628393
16.8745976083
16.8532775463
16.8319722092
16.8103012479
16.7876897301
16.7632590765
16.7356727055
16.7029672503
16.6620604858
16.6100939988
16.5324130009
6.19115570875
6.41139063461
6.55051836982
6.69975893005
6.86907972299
7.05971625451
7.28913085315
7.6131721117
7.76484775759
7.90420571973
8.07995702461
8.29264738023
8.52566051218
8.77272451592
8.92011251766
9.06155933056
9.24398503002
9.45815445823
9.68050393073
9.88117373882
10.0366891402
10.1941727366
10.3815754856
10.5817730791
10.7692521704
10.9345253487
11.098040567
11.2763300107
11.4619316081
11.6404044119
11.8065549305
11.9701779754
12.1408039363
12.3156492008
12.4868025376
12.6510703028
12.8133532311
12.9789346761
13.1468858392
13.3129476299
13.4751785823
13.6360808214
13.7986792829
13.9626834151
14.1255861731
14.2857893172
14.4439553819
14.6014831474
14.7584268873
14.9140248031
15.0681716609
15.2214129301
15.3737240675
15.524521383
15.6734789672
15.8206005296
15.9655072735
16.107347373
16.2452024803
16.3781287911
16.5047056056
16.6229652566
16.7307190027
16.8258341389
16.9062509689
16.9702662748
17.0171299575
17.0475282004
17.06363115
17.0684149472
17.06473058
17.0548589231
17.0405625701
17.0232297065
17.0039300489
16.9834452519
16.9623215096
16.9409242088
16.919477839
16.8981298109
16.8770476267
16.856132952
16.8350502371
16.8134976646
16.7910462974
16.767053217
16.7405760863
16.7102405187
16.6741089366
16.6292889674
16.5731832385
16.4932497467
4.68348931785
4.91753317763
5.06347897925
5.21692265326
5.39146762173
5.59024895123
5.83133540718
6.1767051379
6.33838702546
6.48045958817
6.65288774719
6.84866462291
7.07379557402
7.320421721
7.58062582265
7.73564003565
7.88098915502
8.07132353457
8.29595522005
8.52752578733
8.73226075026
8.88761376075
9.04223184193
9.22790566202
9.43652019347
9.64726278888
9.84051469022
10.0107693479
10.1795985459
10.3638926811
10.5557958939
10.7402061022
10.9120982805
11.0810690107
11.2568764603
11.4368865441
11.6131430183
11.7824891713
11.9494649271
12.1193375718
12.2913246953
12.4612519781
12.6271391306
12.791199704
12.9563463469
13.1224670409
13.2874061655
13.4499926514
13.6113325099
13.7730923262
13.9352566277
14.0964853242
14.2557550694
14.4132329545
14.5696584349
14.72516294
14.8793702088
15.0321387218
15.1836853878
15.3339707388
15.4826083719
15.6292629847
15.7737456673
15.9156483748
16.0542345451
16.1886282965
16.317855718
16.4406188692
16.5552403214
16.6598611759
16.7526582215
16.8319426249
16.8963914007
16.9454522485
16.9796717256
17.0007130857
17.0109156428
17.0126513727
17.0079470174
16.9984415224
16.9854544393
16.9700245968
16.9529335986
16.9347432739
16.9158349629
16.8964404467
16.8768179685
16.8570434583
16.8368963816
16.8161288601
16.7944257972
16.771310493
16.7460894214
16.7177782357
16.6849902989
16.645839133
16.5976316296
16.5380028886
16.4563032531
3.10753495528
3.3467115126
3.49546970435
3.65141515054
3.82980058872
4.03578976291
4.28951852236
4.6602456047
4.83690420927
4.98368394495
5.16264736695
5.36762025054
5.60486770795
5.86556797748
6.13815504447
6.29916779355
6.44280734504
6.62795344504
6.84474919394
7.08296401382
7.3253264244
7.53808595955
7.69934267381
7.85914097651
8.05242250289
8.2698408516
8.48785451821
8.68508041464
8.85702723495
9.02702184792
9.21464787542
9.4167355053
9.61941557502
9.81053704452
9.9881626923
10.1628330392
10.344406354
10.5302366628
10.7122703053
10.8873808196
11.059903409
11.2350650756
11.4122330777
11.5873238803
11.7583529527
11.9272951705
12.0969444779
12.2672928344
12.4362887701
12.6027476346
12.767618531
12.9324722082
13.0974460879
13.2614930524
13.4239204873
13.5851818598
13.7461635673
13.9069112563
14.0667102973
14.2249123921
14.3814889647
14.5368027418
14.6909566894
14.8437552795
14.9950668552
15.144932998
15.2932750588
15.4397975186
15.5841755222
15.7261205018
15.8652005954
16.0007480011
16.1319420469
16.2578337553
16.377242846
16.4887236926
16.5906955555
16.6816086417
16.7600701906
16.8250348102
16.8760847475
16.9136551227
16.9390384962
16.9540912473
16.9607847607
16.9608974434
16.9559282535
16.947113727
16.9354478328
16.9216970761
16.9064255732
16.8900192406
16.8727571368
16.8548864502
16.8364019442
16.8170901466
16.7967328815
16.7749887377
16.7513434737
16.7250679047
16.6951528974
16.6602183512
16.6184439054
16.5673321874
16.5047167787
16.4216108119
1.23006549795
1.4727854638
1.62546942142
1.78669417092
1.96840651302
2.16017299404
2.37652885853
2.64959305628
3.0554936858
3.24881975978
3.39900607341
3.58560664764
3.80152451701
4.05292536025
4.33140905882
4.62044338615
4.79144823002
4.93831695272
5.13198813714
5.36192133432
5.61468176786
5.86986025576
6.08969643211
6.2533172158
6.41261290273
6.60534922009
6.82515294956
7.05730222218
7.28493919459
7.48935324396
7.66753821035
7.84367502829
8.03831661916
8.24773338604
8.45669357013
8.65240499491
8.83362641328
9.01225276474
9.19982070039
9.39579644988
9.59212998562
9.78162238843
9.96311533928
10.1417098889
10.3227388318
10.5056533191
10.6864875058
10.8632849912
11.0378742774
11.2129287531
11.388537807
11.5627591215
11.7344082829
11.9042914356
12.0738491961
12.2432763512
12.4116114926
12.5781702545
12.7433302544
12.9079170824
13.0720973159
13.2353819119
13.3973731776
13.5582382101
13.7184277633
13.8779817759
14.0365101288
14.1936000144
14.3491569668
14.5033311443
14.6561741067
14.807566231
14.9573879919
15.1055878751
15.2520509353
15.3965206815
15.5386836973
15.6782042288
15.8146386848
15.9473668793
16.0756248337
16.1985171388
16.314975437
16.4237452385
16.5234779455
16.6128585482
16.690732014
16.7562590189
16.8091147534
16.8496455189
16.8788675276
16.8982673344
16.9094847479
16.9140674423
16.913369324
16.9085352286
16.9005042983
16.8900165796
16.8776272489
16.8637140801
16.8486206253
16.8325241496
16.8153440762
16.796939272
16.7770855179
16.7554142798
16.7313833934
16.704239062
16.6729601941
16.6361859819
16.5921691779
16.5385961914
16.4734642421
16.3892214227
-1.01172081597
-0.759490327638
-0.604586869023
-0.434050285801
-0.238289867944
-0.0349906036361
0.172182639122
0.409180228273
0.711098335487
1.15606904312
1.36261601428
1.50649774964
1.69658733465
1.91370425201
2.14781748058
2.42060092984
2.72567728204
3.03042196713
3.20164877303
3.34468363675
3.54770758723
3.7959065914
4.06899063694
4.3413551624
4.57002819856
4.73741206505
4.90091154072
5.10334632253
5.33684084669
5.58270682823
5.82091229102
6.03141263792
6.21279887774
6.39152658674
6.59002496259
6.80709816604
7.03138897696
7.25016258118
7.4534124304
7.64141307687
7.82665354596
8.02090010913
8.22343203096
8.42575689955
8.62058181189
8.8072301774
8.99161806713
9.17997645619
9.37259923392
9.56525911712
9.75385515536
9.93745536041
10.1184201536
10.2995402646
10.4810147982
10.6610592584
10.838540072
11.0141778319
11.1892979111
11.3641481354
11.5378501848
11.7097253341
11.8800682528
12.0495986263
12.2185111315
12.3863766709
12.5528171288
12.7179712603
12.882264165
13.0458298437
13.2084479569
13.3698938695
13.5302137143
13.6896212344
13.8481338588
14.0055257935
14.1615278589
14.3160302307
14.469067108
14.6206428558
14.7706639773
14.9190156841
15.065597643
15.2102667358
15.3527817894
15.4928382415
15.6300820306
15.7640691983
15.8942179752
16.019819728
16.1400443558
16.2539289563
16.3603793122
16.4582398678
16.5463939337
16.6238773554
16.6900061209
16.7445205719
16.7876959458
16.8203393037
16.8436511125
16.8589984052
16.8677213407
16.8710317123
16.8699791143
16.8654416627
16.8581253324
16.8485700432
16.837168185
16.8242285422
16.8098743305
16.7940479098
16.77662926
16.7573767654
16.7359004376
16.7116380204
16.6838197495
16.6514221952
16.6131119359
16.5672161844
16.511588432
16.444356476
16.3591833312
-3.1756537347
-2.93194099028
-2.77966085687
-2.59881817902
-2.39386318141
-2.1810188268
-1.9319685218
-1.60169246907
-1.1090628795
-0.868786050689
-0.71683280889
-0.518157864192
-0.294257683476
-0.064689916979
0.18216472412
0.47970950897
0.816831817266
1.14549798633
1.31597221587
1.44812671805
1.64917015828
1.89490541996
2.16359531
2.45531331555
2.74776948278
2.98823504081
3.15533663314
3.31873586661
3.53049312092
3.77953608854
4.04238951586
4.29521112345
4.51496611978
4.70136325624
4.88579391343
5.09340243834
5.32197854164
5.55777919477
5.78616317676
5.99620623946
6.18887458981
6.37876256264
6.57941015518
6.79160408715
7.00820488004
7.22078238179
7.42364712434
7.61723141949
7.80820246797
8.00316377065
8.20236349507
8.40130438269
8.59580951384
8.78529202455
8.97275202176
9.1616129735
9.35234751016
9.54277179648
9.73051639708
9.91485952962
10.0969273475
10.2782358889
10.4591092052
10.6387293637
10.8164470382
10.9925552615
11.1677370895
11.3422091122
11.5155603973
11.6874032566
11.8578464716
12.0272663549
12.1958093686
12.3632775983
12.5294599134
12.6944078545
12.858347868
13.0213731961
13.183377678
13.3442281932
13.5039251625
13.662564371
13.820141443
13.9765079259
14.1314747178
14.28493384
14.4368614671
14.5872266139
14.7359391511
14.8828828128
15.0279318069
15.1709238421
15.3116222286
15.4497286346
15.5848857834
15.7166568355
15.8444924495
15.9677339576
16.0856159028
16.1972685951
16.3017283021
16.3979946112
16.485111433
16.5622650261
16.6288889638
16.6847723578
16.7301395701
16.7656463503
16.792279813
16.8111919071
16.8235463112
16.8304245677
16.8327836385
16.8314383596
16.8270558917
16.8201628508
16.8111592172
16.8002644009
16.7875672165
16.7730761348
16.7566629809
16.7380643379
16.7168710925
16.6925042189
16.6641823886
16.6308843742
16.5913061335
16.5438444273
16.4864990958
16.4174972023
16.3315128873
-5.13355571382
-4.88507028632
-4.72745949437
-4.53248011324
-4.30491154762
-4.04228690763
-3.70893766037
-3.21853373666
-3.03401439879
-2.87499784169
-2.66200550842
-2.42202115179
-2.15866106567
-1.83534440761
-1.46383471353
-1.09350861292
-0.904125205281
-0.776829343364
-0.576003612151
-0.330653068117
-0.0699280426555
0.210036894443
0.519892286014
0.833234507829
1.08776726645
1.25750811239
1.41817367761
1.63046438614
1.88172969822
2.1513915931
2.42924723065
2.69633762441
2.92650891819
3.11802810666
3.30745382526
3.52445168312
3.76596354792
4.01556374814
4.25640856074
4.4761748314
4.67623395652
4.87362616926
5.08340862737
5.30612687161
5.53327781018
5.75523622723
5.96574690048
6.16566627359
6.36306092468
6.56591541449
6.77541532827
6.98743029288
7.19665336913
7.39961848085
7.59648854745
7.79088877212
7.98662385869
8.18421869384
8.38133721499
8.5755597561
8.76641101237
8.95547240276
9.14469019649
9.33448376143
9.52368682253
9.71087772299
9.8955185976
10.0781575725
10.2596489941
10.4402755758
10.6196601747
10.7974354734
10.9737286117
11.1489112543
11.3231433444
11.4962273327
11.6679401963
11.8383214816
12.0075762253
12.1758058598
12.3429162035
12.5087868058
12.6734360878
12.8369884476
12.9995046993
13.1609288036
13.321176184
13.4802288807
13.6381216731
13.794833711
13.950254545
14.104240204
14.2566877985
14.407543157
14.5567507109
14.7042161469
14.8498189978
14.9934187862
15.1348405071
15.2738484632
15.4101491997
15.5433889455
15.6731418734
15.7988875959
15.9200119868
16.0358093169
16.1454911481
16.2482015242
16.3430660257
16.4292590489
16.5060871138
16.5730755602
16.6300520241
16.6772049411
16.7150793007
16.7445015941
16.7664543222
16.7819536103
16.7919653281
16.7973598056
16.7988892495
16.7971779177
16.7927233028
16.7859166164
16.7769493138
16.7658712913
16.7526947111
16.7372944781
16.7193929887
16.6985644871
16.6742154911
16.6455562886
16.6115706096
16.5709836337
16.5222548965
16.4635109225
16.3930553956
16.3064379083
-7.23259637752
-6.97009380939