/*--------------------------------*- C++ -*----------------------------------*\
| =========                 |                                                 |
| \\      /  F ield         | OpenFOAM: The Open Source CFD Toolbox           |
|  \\    /   O peration     | Version:  2.3.1                                 |
|   \\  /    A nd           | Web:      www.OpenFOAM.org                      |
|    \\/     M anipulation  |                                                 |
\*---------------------------------------------------------------------------*/
FoamFile
{
    version     2.0;
    format      ascii;
    class       surfaceScalarField;
    location    "526";
    object      phi;
}
// * * * * * * * * * * * * * * * * * * * * * * * * * * * * * * * * * * * * * //

dimensions      [0 3 -1 0 0 0 0];

internalField   nonuniform List<scalar> 
19742
(
3.08874033621e-06
4.48996764878e-08
3.01653138069e-06
7.22089555235e-08
2.95701193059e-06
5.95194501025e-08
2.89828577887e-06
5.87261517173e-08
2.84327489902e-06
5.50108798536e-08
2.7934828371e-06
4.97920619252e-08
2.74905554019e-06
4.44272969089e-08
2.70986543136e-06
3.9190108829e-08
2.67580267172e-06
3.40627596407e-08
2.64683302046e-06
2.89696512672e-08
2.62304436483e-06
2.37886556297e-08
2.60472045798e-06
1.83239068519e-08
2.5924727596e-06
1.22476983807e-08
2.58803514541e-06
4.43761418682e-09
2.59541654368e-06
-7.38139827132e-09
2.62418405775e-06
-2.87675140656e-08
2.70543750366e-06
-8.12534459127e-08
-2.39481157488e-07
2.94491866115e-06
3.46925577971e-06
3.18541584387e-08
3.46054374705e-06
8.09209881832e-08
3.44898532022e-06
7.10778769305e-08
3.43820026894e-06
6.95112030012e-08
3.42719083332e-06
6.6020315479e-08
3.41647986007e-06
6.05030351741e-08
3.40652467164e-06
5.43824853406e-08
3.39774267183e-06
4.79721086343e-08
3.39059141883e-06
4.12140126465e-08
3.38558765593e-06
3.39734141663e-08
3.3833606662e-06
2.60156453658e-08
3.38477854476e-06
1.6906028291e-08
3.39137941267e-06
5.6468304687e-09
3.40544422782e-06
-9.627200963e-09
3.43068801816e-06
-3.26251886062e-08
3.4744137993e-06
-7.24932952088e-08
3.54679592993e-06
-1.5363557654e-07
-3.2146806287e-07
3.62878283531e-06
3.81001702619e-06
3.3832067585e-08
3.82071921004e-06
7.02188043336e-08
3.82608253015e-06
6.57145568245e-08
3.83236450206e-06
6.32292310904e-08
3.83852320464e-06
5.98616129017e-08
3.84461369565e-06
5.44125441624e-08
3.85111263953e-06
4.78835414647e-08
3.85845528627e-06
4.06294618978e-08
3.86708418698e-06
3.25851119375e-08
3.87751799407e-06
2.35396070756e-08
3.89043284339e-06
1.31007960406e-08
3.90682854336e-06
5.10328323946e-10
3.92805519301e-06
-1.55798191804e-08
3.95613553348e-06
-3.77075414351e-08
3.99450999764e-06
-7.09996527626e-08
4.04781739217e-06
-1.25800689735e-07
4.11648508486e-06
-2.22303269227e-07
-3.86220609021e-07
4.18123763101e-06
4.20700330194e-06
3.12351663452e-08
4.21849151649e-06
5.87305897797e-08
4.22624201164e-06
5.79640616818e-08
4.23444366796e-06
5.50275747674e-08
4.24320686349e-06
5.10984173705e-08
4.25257166067e-06
4.50477469853e-08
4.26291167459e-06
3.75435275455e-08
4.27458829e-06
2.8952846489e-08
4.28797750596e-06
1.91958959764e-08
4.30355285961e-06
7.96425342727e-09
4.32195399897e-06
-5.30034332061e-09
4.34404021256e-06
-2.15758852648e-08
4.37103324466e-06
-4.25728512757e-08
4.40462195224e-06
-7.12962490169e-08
4.44664140448e-06
-1.13019105e-07
4.49741385916e-06
-1.76573144414e-07
4.55003299854e-06
-2.7492240861e-07
-4.17471347572e-07
4.58128373709e-06
4.6419316466e-06
2.65110984493e-08
4.65240293203e-06
4.82593043444e-08
4.66111842077e-06
4.92485729477e-08
4.67030061982e-06
4.58453757109e-08
4.68044848074e-06
4.09505564511e-08
4.69157613571e-06
3.39200920243e-08
4.70394087708e-06
2.51787861703e-08
4.71786865724e-06
1.50250663306e-08
4.73372937527e-06
3.33517794482e-09
4.75198149243e-06
-1.02878637302e-08
4.7732152139e-06
-2.65340647873e-08
4.79817607458e-06
-4.65367459499e-08
4.82774867524e-06
-7.21454519301e-08
4.86275166051e-06
-1.06299234292e-07
4.90322974372e-06
-1.53497188203e-07
4.94662274967e-06
-2.19966150365e-07
4.98406728392e-06
-3.12366942861e-07
-4.30903255422e-07
4.99749919177e-06
5.11977879664e-06
2.12814378136e-08
5.12979760082e-06
3.82405001653e-08
5.13945539713e-06
3.95907766317e-08
5.14967469871e-06
3.5626074136e-08
5.16097538609e-06
2.96498690666e-08
5.17341452236e-06
2.14809557616e-08
5.18721707548e-06
1.137623305e-08
5.20270181321e-06
-4.59671402358e-10
5.22022743123e-06
-1.41904400745e-08
5.2402099542e-06
-3.02703867019e-08
5.26312628633e-06
-4.94503969133e-08
5.28948048348e-06
-7.28909431026e-08
5.31966637348e-06
-1.02331341928e-07
5.35362326855e-06
-1.4025612936e-07
5.39007399439e-06
-1.89947914046e-07
5.42515635192e-06
-2.5504850789e-07
5.45065455691e-06
-3.37865147857e-07
-4.34438181774e-07
5.45418948327e-06
5.64615716431e-06
1.61345661032e-08
5.65592312263e-06
2.84745418486e-08
5.66629620998e-06
2.92176892849e-08
5.67741612281e-06
2.45061613029e-08
5.68970465233e-06
1.73613395504e-08
5.70325119088e-06
7.93441720961e-09
5.71824832897e-06
-3.62090504459e-09
5.73497888817e-06
-1.71902305999e-08
5.7537495827e-06
-3.29611346006e-08
5.774878328e-06
-5.13991320069e-08
5.79866520767e-06
-7.32372765781e-08
5.8253071503e-06
-9.95328857375e-08
5.85470733082e-06
-1.31731522442e-07
5.88611448711e-06
-1.71663285652e-07
5.91751782009e-06
-2.21351247021e-07
5.94485800249e-06
-2.82388690292e-07
5.96151811153e-06
-3.54525256896e-07
-4.32538452931e-07
5.95961838269e-06
4.40979541779e-06
1.24940042132e-08
4.41655661575e-06
2.17133438895e-08
4.4243088035e-06
2.14655015314e-08
4.4327641016e-06
1.60508632033e-08
4.44212457065e-06
8.00087050496e-09
4.45247567156e-06
-2.41668370077e-09
4.46393227965e-06
-1.5077513134e-08
4.47666312022e-06
-2.9921071168e-08
4.49085139601e-06
-4.71494103882e-08
4.50666530699e-06
-6.72130429891e-08
4.52421816119e-06
-9.0790130779e-08
4.54348789105e-06
-1.18802615591e-07
4.56417043528e-06
-1.52414066672e-07
4.58544640487e-06
-1.92939255243e-07
4.60566607944e-06
-2.41570921593e-07
4.62206329468e-06
-2.98785905531e-07
4.63079704867e-06
-3.63259010883e-07
-4.29864281922e-07
4.62812287766e-06
5.14375748708e-06
8.66715753749e-09
5.15089110731e-06
1.45797236598e-08
5.15938380288e-06
1.29728059587e-08
5.16883017724e-06
6.60448884386e-09
5.17933834342e-06
-2.50729567313e-09
5.19095790753e-06
-1.4036247814e-08
5.2037680659e-06
-2.78876714991e-08
5.21789131785e-06
-4.40443231185e-08
5.23344596694e-06
-6.27040594771e-08
5.25050287625e-06
-8.42699522955e-08
5.26902965362e-06
-1.09316908153e-07
5.28879824459e-06
-1.38571206559e-07
5.30924260883e-06
-1.72858430913e-07
5.32926897164e-06
-2.12965618057e-07
5.34705833725e-06
-2.59360287204e-07
5.35998746655e-06
-3.11715034823e-07
5.36491326538e-06
-3.68184809718e-07
-4.24202627451e-07
5.35925161091e-06
5.99985294218e-06
4.69987835429e-09
6.00727021042e-06
7.1624554206e-09
6.01640064121e-06
3.84237517267e-09
6.02674033257e-06
-3.73520251237e-09
6.03829540972e-06
-1.40623728298e-08
6.0510600615e-06
-2.68008995916e-08
6.06505686672e-06
-4.18844767156e-08
6.08033761398e-06
-5.93250703774e-08
6.09692855544e-06
-7.92950009361e-08
6.11477677336e-06
-1.02118170218e-07
6.13368608963e-06
-1.28226224426e-07
6.15322612684e-06
-1.58111243769e-07
6.17261351548e-06
-1.92245819549e-07
6.19058467264e-06
-2.30936775212e-07
6.205314201e-06
-2.74089815563e-07
6.2144869329e-06
-3.20887766725e-07
6.21568695143e-06
-3.69384828252e-07
-4.15795161227e-07
6.20727948521e-06
6.99842132853e-06
6.47447922029e-10
7.00600536124e-06
-4.21577287815e-10
7.01563020317e-06
-5.78246675385e-09
7.02669912853e-06
-1.48041278768e-08
7.03910314532e-06
-2.64663896106e-08
7.05276857298e-06
-4.04663272594e-08
7.06764171102e-06
-5.67576147491e-08
7.08368000787e-06
-7.53633672251e-08
7.10079471277e-06
-9.64097058413e-08
7.11879172118e-06
-1.20115178621e-07
7.13730797059e-06
-1.46742473836e-07
7.15573508749e-06
-1.76538360667e-07
7.17313837248e-06
-2.09649104541e-07
7.18819831178e-06
-2.45996714514e-07
7.19922511718e-06
-2.85116620967e-07
7.20431865479e-06
-3.25981304325e-07
7.20175505323e-06
-3.66821226693e-07
-4.04682284895e-07
7.19064217689e-06
8.16318418831e-06
-3.41802719044e-09
8.17079865922e-06
-8.03604818958e-09
8.18070894988e-06
-1.56927574216e-08
8.19225008445e-06
-2.63452624464e-08
8.20518963667e-06
-3.94059418266e-08
8.21936770102e-06
-5.46443916108e-08
8.234635966e-06
-7.20258797286e-08
8.25083815657e-06
-9.15655577877e-08
8.26775561454e-06
-1.13327163812e-07
8.28504989909e-06
-1.37409463171e-07
8.30220878512e-06
-1.63901359863e-07
8.3184947284e-06
-1.92824303953e-07
8.33290774093e-06
-2.2406211707e-07
8.34418797103e-06
-2.57276944612e-07
8.35089303917e-06
-2.91821689102e-07
8.35158458051e-06
-3.26672845667e-07
8.34514534012e-06
-3.6038198631e-07
-3.90758196802e-07
8.33122125203e-06
9.5218115085e-06
-7.40279708523e-09
9.52928001686e-06
-1.55045565521e-08
9.53918231825e-06
-2.55950588132e-08
9.55081849997e-06
-3.79814441654e-08
9.56383275697e-06
-5.24201988245e-08
9.57796140918e-06
-6.87730438231e-08
9.59294753099e-06
-8.70120015361e-08
9.6085110548e-06
-1.07129081598e-07
9.6243023329e-06
-1.29118441912e-07
9.63985480203e-06
-1.52961932304e-07
9.65454808783e-06
-1.78594645661e-07
9.66758556369e-06
-2.05861779807e-07
9.67799691624e-06
-2.34473469622e-07
9.68468236401e-06
-2.63962392377e-07
9.68651489695e-06
-2.93654222045e-07
9.68250673988e-06
-3.226646886e-07
9.67203113082e-06
-3.49906377248e-07
-3.73821453709e-07
9.65509438773e-06
1.11065744091e-05
-1.1181434581e-08
1.11136590626e-05
-2.2589210075e-08
1.11231583501e-05
-3.50943463076e-08
1.11343644041e-05
-4.91874981515e-08
1.11468117741e-05
-6.4867568813e-08
1.11601256119e-05
-8.20868815839e-08
1.1173937053e-05
-1.00823442677e-07
1.11878482592e-05
-1.21040287845e-07
1.12013976588e-05
-1.42667841483e-07
1.12140289135e-05
-1.65593186966e-07
1.12250744325e-05
-1.89640164693e-07
1.12337587361e-05
-2.14546083373e-07
1.1239227638e-05
-2.39942371533e-07
1.12406096413e-05
-2.6534439574e-07
1.12371115106e-05
-2.90156091339e-07
1.12281401437e-05
-3.13693321618e-07
1.12134351003e-05
-3.35201333879e-07
-3.53610130943e-07
1.11932237775e-05
1.29551164708e-05
-1.45904989961e-08
1.29615001009e-05
-2.89728401221e-08
1.29700864417e-05
-4.36806870938e-08
1.2980177168e-05
-5.92782245091e-08
1.29912227875e-05
-7.59131882844e-08
1.3002747666e-05
-9.36117601259e-08
1.30142852766e-05
-1.12361053295e-07
1.30253469928e-05
-1.32102003991e-07
1.30354007917e-05
-1.52721640437e-07
1.3043857953e-05
-1.74050348195e-07
1.30500744931e-05
-1.95856704826e-07
1.30533708497e-05
-2.17842439927e-07
1.30530709367e-05
-2.39642458537e-07
1.30485595859e-05
-2.60833044937e-07
1.30393533224e-05
-2.80949827844e-07
1.30251739782e-05
-2.99513977493e-07
1.30060144477e-05
-3.16041803307e-07
-3.29819704694e-07
1.29822240214e-05
1.51113545223e-05
-1.74273741671e-08
1.51166409197e-05
-3.42592375644e-08
1.51236991423e-05
-5.07389096951e-08
1.5131852363e-05
-6.74314451863e-08
1.51405009594e-05
-8.45617846627e-08
1.51490993976e-05
-1.02210198326e-07
1.51571190415e-05
-1.20380697225e-07
1.51640279477e-05
-1.39010910173e-07
1.51692823215e-05
-1.57976014209e-07
1.51723271683e-05
-1.77095194988e-07
1.5172608437e-05
-1.96137973613e-07
1.51695974027e-05
-2.14831405613e-07
1.51628254172e-05
-2.3287047297e-07
1.51519250534e-05
-2.49932681135e-07
1.51366716455e-05
-2.65696419947e-07
1.51170177466e-05
-2.79860078653e-07
1.50931168688e-05
-2.92140925459e-07
-3.02075790761e-07
1.50653729548e-05
1.76265277788e-05
-1.94533669247e-08
1.76302714778e-05
-3.80029366145e-08
1.76351344087e-05
-5.56018406029e-08
1.76404717329e-05
-7.27687693353e-08
1.76456714425e-05
-8.97614943219e-08
1.76501653626e-05
-1.06704118444e-07
1.7653416636e-05
-1.23631970545e-07
1.76549114537e-05
-1.40505727875e-07
1.76541594291e-05
-1.57223989646e-07
1.76507011206e-05
-1.73636886513e-07
1.76441221137e-05
-1.8955896666e-07
1.76340726611e-05
-2.04781953018e-07
1.76202903576e-05
-2.19088169451e-07
1.76026222199e-05
-2.32264543435e-07
1.75810421152e-05
-2.44116315274e-07
1.75556600021e-05
-2.54477965525e-07
1.75267243149e-05
-2.63205238282e-07
-2.70006492799e-07
1.74946550169e-05
1.78271983105e-05
-2.04101263819e-08
1.78289258388e-05
-3.97304649899e-08
1.78309568071e-05
-5.76328088184e-08
1.78327527436e-05
-7.45647058443e-08
1.78337907945e-05
-9.07995452303e-08
1.7833594566e-05
-1.06507889954e-07
1.78317334739e-05
-1.2177087848e-07
1.78278196376e-05
-1.36591891567e-07
1.78215107569e-05
-1.50915108974e-07
1.78125167439e-05
-1.64642873487e-07
1.7800608332e-05
-1.77650554771e-07
1.77856267309e-05
-1.89800351917e-07
1.77674927631e-05
-2.0095420158e-07
1.77462134532e-05
-2.10985233603e-07
1.77218842663e-05
-2.19787128346e-07
1.76946861257e-05
-2.27279824896e-07
1.7664880195e-05
-2.3339930765e-07
-2.37956993716e-07
1.7632830696e-05
1.58815695108e-05
-2.06085721682e-08
1.58818602816e-05
-4.002123577e-08
1.58818995488e-05
-5.76720760803e-08
1.58812557574e-05
-7.39209143697e-08
1.58795226792e-05
-8.90664670258e-08
1.58763564115e-05
-1.03341622269e-07
1.58714666693e-05
-1.16881136325e-07
1.58646103612e-05
-1.29735583469e-07
1.58555934262e-05
-1.41898173926e-07
1.58442737492e-05
-1.53323196559e-07
1.58305635029e-05
-1.63940308386e-07
1.58144312555e-05
-1.73668104547e-07
1.57959031319e-05
-1.82426077975e-07
1.5775061971e-05
-1.90144072737e-07
1.57520438694e-05
-1.96769026689e-07
1.57270321598e-05
-2.02268115347e-07
1.57002516602e-05
-2.06618808043e-07
-2.0969118592e-07
1.56719858524e-05
1.41485215162e-05
-2.04413873632e-08
1.41481424025e-05
-3.96421220327e-08
1.41472592252e-05
-5.67888988325e-08
1.41454642864e-05
-7.21259755291e-08
1.41424183021e-05
-8.60204827109e-08
1.41378748317e-05
-9.87981519449e-08
1.41316434222e-05
-1.106497268e-07
1.4123578489e-05
-1.21670650299e-07
1.41135813047e-05
-1.31900989584e-07
1.4101599289e-05
-1.41341180881e-07
1.40876238591e-05
-1.49964878499e-07
1.4071688763e-05
-1.57733008361e-07
1.40538680524e-05
-1.64605367386e-07
1.40342728141e-05
-1.70548834488e-07
1.4013046466e-05
-1.75542678596e-07
1.39903589777e-05
-1.79580627012e-07
1.39664022877e-05
-1.82662118077e-07
-1.84693500816e-07
1.39414046026e-05
1.26047237451e-05
-2.01204174303e-08
1.26041544526e-05
-3.90728295556e-08
1.2603019928e-05
-5.56543742179e-08
1.2600852705e-05
-6.99587525532e-08
1.25973573286e-05
-8.25251063386e-08
1.25923670248e-05
-9.38078481133e-08
1.25857610925e-05
-1.04043794545e-07
1.25774590104e-05
-1.13368568151e-07
1.25674246622e-05
-1.2186664134e-07
1.25556608689e-05
-1.29577387634e-07
1.25422040688e-05
-1.36508078373e-07
1.25271213316e-05
-1.42650271198e-07
1.25105075624e-05
-1.47991598215e-07
1.24924819333e-05
-1.52523205372e-07
1.24731837041e-05
-1.56244449401e-07
1.24527677099e-05
-1.59164632736e-07
1.24314015018e-05
-1.61295909978e-07
-1.6256860375e-07
1.24092766047e-05
1.12294127838e-05
-1.97183032767e-08
1.12289666166e-05
-3.86266623331e-08
1.12280015568e-05
-5.46893143962e-08
1.12259044034e-05
-6.78615991527e-08
1.12224414943e-05
-7.90621972261e-08
1.12175211007e-05
-8.88874545245e-08
1.12110682199e-05
-9.75909137239e-08
1.12030464479e-05
-1.05346796203e-07
1.11934628793e-05
-1.12283072715e-07
1.11823557135e-05
-1.18470221834e-07
1.11697872241e-05
-1.23939588928e-07
1.11558409567e-05
-1.28704003798e-07
1.11406189748e-05
-1.32769616366e-07
1.11242385671e-05
-1.36142797663e-07
1.11068287716e-05
-1.38834653931e-07
1.10885270938e-05
-1.40862954856e-07
1.10694781729e-05
-1.42246989115e-07
-1.42933326765e-07
1.10498428959e-05
1.00040868252e-05
-1.91800604868e-08
1.00040012126e-05
-3.8541049712e-08
1.00034726949e-05
-5.41607966702e-08
1.00016745153e-05
-6.60634195466e-08
9.99849716721e-06
-7.58848491721e-08
9.99391813496e-06
-8.43084222831e-08
9.98788983575e-06
-9.1562614508e-08
9.98041014235e-06
-9.78671028045e-08
9.97151781733e-06
-1.03390747692e-07
9.96127290295e-06
-1.0822530745e-07
9.94975110052e-06
-1.12417786498e-07
9.93704237073e-06
-1.15995274011e-07
9.92324861599e-06
-1.18975861623e-07
9.90848095357e-06
-1.2137513524e-07
9.89285744509e-06
-1.23211145457e-07
9.87650186307e-06
-1.24507372829e-07
9.85954631111e-06
-1.25291437159e-07
-1.25527894609e-07
9.84214087895e-06
8.91225550593e-06
-1.83299474179e-08
8.9127283581e-06
-3.90139018805e-08
8.91274282339e-06
-5.41752619634e-08
8.91130629596e-06
-6.46268921098e-08
8.90851666873e-06
-7.30952219477e-08
8.90438441649e-06
-8.01761700362e-08
8.89887600329e-06
-8.60542013047e-08
8.89202425183e-06
-9.10153513469e-08
8.88389451133e-06
-9.52610071888e-08
8.87456065034e-06
-9.88914464671e-08
8.86410415288e-06
-1.01961289033e-07
8.8526148308e-06
-1.0450595193e-07
8.8401890825e-06
-1.06550113326e-07
8.82692746302e-06
-1.0811351576e-07
8.8129323263e-06
-1.0921600873e-07
8.79830622859e-06
-1.0988127512e-07
8.78315436657e-06
-1.10139575137e-07
-1.09964853733e-07
8.76759132569e-06
7.93929360586e-06
-1.69506912728e-08
7.94060857258e-06
-4.03288686051e-08
7.94107562763e-06
-5.4642317017e-08
7.93992417937e-06
-6.34754438432e-08
7.93754012785e-06
-7.07111704256e-08
7.93388576985e-06
-7.65218120381e-08
7.92892139277e-06
-8.1089824222e-08
7.92270640462e-06
-8.48003631992e-08
7.91532247514e-06
-8.78770777071e-08
7.90685077502e-06
-9.04197463494e-08
7.89737550224e-06
-9.24860162533e-08
7.88698521162e-06
-9.41156613125e-08
7.87577132649e-06
-9.53362281948e-08
7.86382615542e-06
-9.61683446809e-08
7.85124119614e-06
-9.66310494526e-08
7.83810723217e-06
-9.67473111518e-08
7.82452448928e-06
-9.65568322488e-08
-9.60715609793e-08
7.81063119653e-06
7.07140283108e-06
-1.40193333513e-08
7.07421891311e-06
-4.31449506393e-08
7.07491447742e-06
-5.53378813269e-08
7.073847705e-06
-6.24086714203e-08
7.07173179332e-06
-6.85952587399e-08
7.06843231129e-06
-7.32223300089e-08
7.06391849834e-06
-7.65760112688e-08
7.05826476162e-06
-7.91466264855e-08
7.05154769418e-06
-8.11600102635e-08
7.0438403249e-06
-8.27123770683e-08
7.03522030224e-06
-8.38659935912e-08
7.02577003057e-06
-8.46653896476e-08
7.01557417839e-06
-8.51403760173e-08
7.0047166833e-06
-8.53108495859e-08
6.99327638463e-06
-8.51907507837e-08
6.98132039518e-06
-8.47913217034e-08
6.96889702104e-06
-8.41334581016e-08
-8.32034454136e-08
6.95602890547e-06
6.29576365177e-06
-7.26846811752e-09
6.3014239609e-06
-4.88052597758e-08
6.30260742213e-06
-5.65213425479e-08
6.30191855465e-06
-6.17198039453e-08
6.30004182645e-06
-6.67185305354e-08
6.29678181486e-06
-6.99623184183e-08
6.29225791246e-06
-7.20521088753e-08
6.28663013413e-06
-7.35188481562e-08
6.28000341665e-06
-7.45332927763e-08
6.2724597533e-06
-7.51687137166e-08
6.26407770698e-06
-7.5483947276e-08
6.25493614724e-06
-7.55238299031e-08
6.24511434066e-06
-7.53185694373e-08
6.23469066866e-06
-7.48871775854e-08
6.22373928839e-06
-7.42393705126e-08
6.21232402042e-06
-7.337605374e-08
6.20049750172e-06
-7.23069393921e-08
-7.10230087887e-08
6.18831706509e-06
5.59994513151e-06
7.68802437309e-09
5.60724448268e-06
-5.61046109427e-08
5.60798386676e-06
-5.72607266332e-08
5.60807170642e-06
-6.18076435974e-08
5.60677732243e-06
-6.54241465529e-08
5.60360835228e-06
-6.67933482636e-08
5.59877092085e-06
-6.72146774456e-08
5.59249994163e-06
-6.72478689383e-08
5.58496852228e-06
-6.70018734265e-08
5.57632081481e-06
-6.65210062428e-08
5.56668530091e-06
-6.58484333706e-08
5.55617934156e-06
-6.50178705551e-08
5.54491262555e-06
-6.40518534264e-08
5.53298890932e-06
-6.29634613538e-08
5.52050434337e-06
-6.17548045671e-08
5.50753591525e-06
-6.04076256166e-08
5.49409928913e-06
-5.88703132686e-08
-5.68874038504e-08
5.47996368419e-06
5.00788841691e-06
2.1080024673e-09
5.00214202204e-06
-5.03582160733e-08
4.99069119168e-06
-4.58098962778e-08
4.98011820062e-06
-5.12346525292e-08
4.96851029852e-06
-5.38162444613e-08
4.95550925894e-06
-5.37923086785e-08
4.94111005944e-06
-5.28154779435e-08
4.92534657976e-06
-5.14843892619e-08
4.9083150256e-06
-4.99703192618e-08
4.89015324434e-06
-4.83592249851e-08
4.87101404084e-06
-4.67092298707e-08
4.85105255051e-06
-4.50563802197e-08
4.83042141966e-06
-4.3420722575e-08
4.80926914561e-06
-4.18111873027e-08
4.78774087659e-06
-4.02265355456e-08
4.76598153071e-06
-3.86482797398e-08
4.74412324868e-06
-3.70120312392e-08
-3.4955167219e-08
4.72219101205e-06
4.45865806047e-06
4.40829984439e-06
4.36248994812e-06
4.31125529559e-06
4.25743905113e-06
4.20364674245e-06
4.1508312645e-06
4.09934687524e-06
4.04937655598e-06
4.001017331e-06
3.95430810113e-06
3.90925172091e-06
3.86583099833e-06
3.82401981103e-06
3.78379327548e-06
3.74514499574e-06
3.7081329645e-06
3.67317779728e-06
1.67159845783e-06
-1.6715984578e-06
2.06975963511e-06
-3.98161177241e-07
2.14720744093e-06
-7.74478057873e-08
2.16554974587e-06
-1.83423049067e-08
2.19213285468e-06
-2.65831087774e-08
2.21611451488e-06
-2.39816601657e-08
2.23434398628e-06
-1.82294713711e-08
2.2478896884e-06
-1.35457020836e-08
2.25794636659e-06
-1.00566781554e-08
2.26520094142e-06
-7.25457479135e-09
2.27012307662e-06
-4.92213516843e-09
2.27311223321e-06
-2.9891565513e-09
2.2745170688e-06
-1.40483555536e-09
2.27467390266e-06
-1.56833825294e-10
2.27385170656e-06
8.22196129182e-10
2.27219875005e-06
1.6529565511e-09
2.26980279611e-06
2.39595397347e-09
2.26670768751e-06
3.09510863531e-09
2.26290108851e-06
3.80659904088e-09
2.25830585052e-06
4.59523802871e-09
2.25276197055e-06
5.54388000067e-09
2.24601223575e-06
6.74973484458e-09
2.23766216172e-06
8.3500740614e-09
2.22706829518e-06
1.05938665865e-08
2.21314346822e-06
1.39248269957e-08
2.19393516573e-06
1.92083025354e-08
2.16536988854e-06
2.85652772409e-08
2.11735765545e-06
4.80122331285e-08
1.10359032741e-07
2.00699862274e-06
1.86425846263e-06
-1.8642584626e-06
2.47277399762e-06
-6.08515534971e-07
3.11912841132e-06
-6.46354413684e-07
2.17795936836e-06
-7.30429414805e-07
2.23558966056e-06
-4.5579146942e-07
2.3747459167e-06
-2.16604061893e-07
2.46369576595e-06
-1.07292154133e-07
2.52067641063e-06
-8.35637534226e-08
2.56612623421e-06
-6.94314837213e-08
2.60334397814e-06
-5.54472152697e-08
2.63409667005e-06
-4.42983939618e-08
2.65994328789e-06
-3.59032959606e-08
2.68191407536e-06
-2.92253622369e-08
2.70068053739e-06
-2.36885971618e-08
2.71673485296e-06
-1.90434720867e-08
2.73045172529e-06
-1.51217078535e-08
2.74206635807e-06
-1.17714665698e-08
2.75175267902e-06
-8.8641247943e-09
2.75969377965e-06
-6.28814404409e-09
2.76602675095e-06
-3.93701729152e-09
2.77084857173e-06
-1.72671210738e-09
2.77425269346e-06
4.02477339153e-10
2.77622131112e-06
2.62662040619e-09
2.77657548788e-06
5.18970327262e-09
2.77505462235e-06
8.27060041228e-09
2.77126467793e-06
1.21400185158e-08
2.7645650015e-06
1.72935430465e-08
2.75389366237e-06
2.45961661678e-08
2.73740069138e-06
3.57012735596e-08
2.71173029886e-06
5.42356698083e-08
2.67031381268e-06
8.9428719348e-08
1.65742888455e-07
2.61492995699e-06
1.98510021183e-06
-1.98510021182e-06
2.47597953165e-06
-4.90879319807e-07
2.87146058808e-06
-3.95481056418e-07
3.53603780772e-06
-6.64577219615e-07
2.54175211299e-06
-8.69972767862e-07
2.63941003765e-06
-7.06173459611e-07
2.6570200435e-06
-6.63964419514e-07
2.55898314415e-06
-6.32392515431e-07
2.58056307701e-06
-4.77371402251e-07
2.66619658882e-06
-3.02237573685e-07
2.74797419754e-06
-1.89069762821e-07
2.80639752925e-06
-1.41987085117e-07
2.85283655266e-06
-1.15870507103e-07
2.89205284602e-06
-9.46635086062e-08
2.92553296911e-06
-7.77785170326e-08
2.95440614424e-06
-6.47764710585e-08
2.97956476109e-06
-5.43839790657e-08
3.00161369445e-06
-4.57375304987e-08
3.02097515013e-06
-3.84049277398e-08
3.03796414493e-06
-3.21107026304e-08
3.05282035197e-06
-2.66276735827e-08
3.06572116959e-06
-2.17649423898e-08
3.07679318431e-06
-1.73601587379e-08
3.08612007176e-06
-1.32639047176e-08
3.09372446075e-06
-9.33110107452e-09
3.09953422069e-06
-5.40728257889e-09
3.1035186351e-06
-1.35779398271e-09
3.10566121666e-06
3.04712173953e-09
3.1057878148e-06
8.14400229855e-09
3.10356850666e-06
1.4359326674e-08
3.09847509632e-06
2.23869534155e-08
3.08968330056e-06
3.33879619508e-08
3.07591430828e-06
4.94702658667e-08
3.05535626082e-06
7.47937172937e-08
3.02651115198e-06
1.1827382822e-07
1.96295144959e-07
2.99595889549e-06
2.16116084126e-06
-2.16116084124e-06
2.70703602765e-06
-5.45875186375e-07
3.14561404252e-06
-4.38578014859e-07
3.86122236059e-06
-7.1560831806e-07
2.74675725128e-06
-8.70635102506e-07
2.89222223618e-06
-6.36344304688e-07
3.05914852042e-06
-5.62407340646e-07
3.06261149626e-06
-6.68040195442e-07
2.94988779068e-06
-7.57249062264e-07
2.95418353818e-06
-7.10469207093e-07
2.95113118712e-06
-6.60912068437e-07
2.91631461049e-06
-5.97575938775e-07
2.92530432826e-06
-4.86361120005e-07
2.97791810461e-06
-3.54851350007e-07
3.04132411538e-06
-2.52475773572e-07
3.09384207146e-06
-1.94505041172e-07
3.13680482586e-06
-1.58833261478e-07
3.17343731414e-06
-1.31295996871e-07
3.20489011548e-06
-1.09231318343e-07
3.23193158157e-06
-9.18179371203e-08
3.25531301086e-06
-7.77654083317e-08
3.27562619805e-06
-6.60507176639e-08
3.29330180099e-06
-5.60805306625e-08
3.3086626392e-06
-4.74715408107e-08
3.32195655443e-06
-3.992158879e-08
3.33337090051e-06
-3.31792884443e-08
3.3430415323e-06
-2.70307904932e-08
3.35105966516e-06
-2.12820375558e-08
3.3574721013e-06
-1.57435371936e-08
3.36227786422e-06
-1.02130454655e-08
3.36538727308e-06
-4.46720281806e-09
3.36672187209e-06
1.71252276031e-09
3.36618569444e-06
8.68017997473e-09
3.36351768816e-06
1.70273329801e-08
3.35831079049e-06
2.75938511111e-08
3.34998862693e-06
4.17101255377e-08
3.33781060205e-06
6.16482907782e-08
3.32114638328e-06
9.14579360955e-08
3.30079639167e-06
1.38623819866e-07
2.13673749771e-07
3.28341778688e-06
2.32013558613e-06
-2.32013558612e-06
2.91773345808e-06
-5.97597871944e-07
3.39944329864e-06
-4.81709840543e-07
4.17715979652e-06
-7.77716497868e-07
2.96743943749e-06
-9.51440482202e-07
3.12199493316e-06
-7.00430682029e-07
3.29654893775e-06
-6.13132019447e-07
3.28828692024e-06
-7.07346300537e-07
3.18212447638e-06
-7.64472658633e-07
3.23432385803e-06
-6.8854368633e-07
3.32221857001e-06
-6.50302052608e-07
3.33730196525e-06
-6.83123590673e-07
3.29404743917e-06
-7.13994536161e-07
3.2766581136e-06
-6.93079881507e-07
3.26368559797e-06
-6.47939552794e-07
3.24846640317e-06
-5.82356743949e-07
3.25446616918e-06
-4.92360885996e-07
3.28770569002e-06
-3.8809087083e-07
3.33356068371e-06
-2.98330767252e-07
3.3761989075e-06
-2.3714326494e-07
3.41266523247e-06
-1.95299586436e-07
3.44423267762e-06
-1.62863442003e-07
3.47158740053e-06
-1.36586041234e-07
3.49514526648e-06
-1.1537580305e-07
3.51540736871e-06
-9.80275105424e-08
3.53284255438e-06
-8.34859033176e-08
3.54781837418e-06
-7.10563504447e-08
3.5606177772e-06
-6.02709438068e-08
3.5714622569e-06
-5.07660684726e-08
3.58052321069e-06
-4.22402422193e-08
3.58792824462e-06
-3.44358244017e-08
3.59376581098e-06
-2.71196039058e-08
3.59808660595e-06
-2.00643321374e-08
3.60090254941e-06
-1.30289889167e-08
3.60217968903e-06
-5.74434241257e-09
3.60185435186e-06
2.03785994915e-09
3.59981486091e-06
1.07196709341e-08
3.59586173608e-06
2.09804578317e-08
3.58970906284e-06
3.37465243694e-08
3.58100393589e-06
5.04152525059e-08
3.56942598324e-06
7.32262434473e-08
3.55507739673e-06
1.05806522629e-07
3.539650906e-06
1.5405031061e-07
2.24328202534e-07
3.52899645325e-06
2.46896657648e-06
-2.46896657647e-06
3.11428526923e-06
-6.45318692743e-07
3.63448443974e-06
-5.20199170501e-07
4.46820361793e-06
-8.33719178187e-07
3.1767306421e-06
-1.02866261028e-06
3.34404244263e-06
-7.64909672463e-07
3.53359392771e-06
-6.71261325614e-07
3.52678530654e-06
-7.70907876676e-07
3.40988197038e-06
-8.34537146031e-07
3.46218955364e-06
-7.52738265278e-07
3.55285869706e-06
-7.03801162863e-07
3.57010656712e-06
-7.24594170585e-07
3.54470521975e-06
-7.39071311259e-07
3.56702246872e-06
-7.10860935284e-07
3.60745363594e-06
-6.90733219821e-07
3.61860408462e-06
-6.94274039331e-07
3.60078486687e-06
-6.96175318396e-07
3.58382074209e-06
-6.76115756717e-07
3.56883691051e-06
-6.329557212e-07
3.55865962854e-06
-5.72179461962e-07
3.56165556713e-06
-4.95356824565e-07
3.58234894898e-06
-4.08784252664e-07
3.6139846032e-06
-3.29966421451e-07
3.64632900877e-06
-2.69487670491e-07
3.67547504804e-06
-2.24445625693e-07
3.70128687239e-06
-1.88675266328e-07
3.72394605703e-06
-1.59245225863e-07
3.743557482e-06
-1.34987227992e-07
3.76036304213e-06
-1.14833070653e-07
3.77466907414e-06
-9.77919353063e-08
3.78675134612e-06
-8.3138622407e-08
3.79683684622e-06
-7.03564438902e-08
3.8051109547e-06
-5.90401769289e-08
3.81172218688e-06
-4.88514743817e-08
3.81678449478e-06
-3.9498132273e-08
3.82037930909e-06
-3.07144181998e-08
3.82255636247e-06
-2.22413854922e-08
3.82333301615e-06
-1.38056425739e-08
3.82271418743e-06
-5.1255136757e-09
3.82065748131e-06
4.09456609696e-09
3.81705040159e-06
1.43267506777e-08
3.81174523929e-06
2.62856201557e-08
3.80456251129e-06
4.09292523907e-08
3.79533191107e-06
5.96458527513e-08
3.78403345174e-06
8.4524702797e-08
3.77118393958e-06
1.18656034823e-07
3.75872376843e-06
1.66510481788e-07
2.3155640998e-07
3.751495561e-06
2.59996810049e-06
-2.59996810049e-06
3.19959283143e-06
-5.9962473093e-07
3.48630971156e-06
-2.86716880124e-07
3.91778063251e-06
-4.31470920935e-07
4.77012665746e-06
-8.52346024941e-07
3.39553791675e-06
-1.09437783575e-06
3.5689098601e-06
-8.18690636083e-07
3.76974311789e-06
-7.21032428285e-07
3.76450190395e-06
-8.28477964239e-07
3.63826335933e-06
-9.02424065651e-07
3.69305995723e-06
-8.19706270355e-07
3.78950022483e-06
-7.67701593208e-07
3.80797775524e-06
-7.89385407069e-07
3.77890455409e-06
-8.05463944876e-07
3.80050620084e-06
-7.74339912018e-07
3.8437315617e-06
-7.47026523715e-07
3.86231319257e-06
-7.43175801439e-07
3.86279285878e-06
-7.39550977461e-07
3.87502468041e-06
-7.23092756909e-07
3.89197321555e-06
-7.07681754943e-07
3.89600192095e-06
-6.98302744726e-07
3.88529989319e-06
-6.85473290612e-07
3.87029324697e-06
-6.61109110484e-07
3.85593106485e-06
-6.18593539071e-07
3.84638811709e-06
-5.62636514188e-07
3.84604503646e-06
-4.95013743922e-07
3.85786380612e-06
-4.20603022309e-07
3.87850958039e-06
-3.50612195703e-07
3.90155616019e-06
-2.92534250279e-07
3.92346636302e-06
-2.4635582851e-07
3.9433863269e-06
-2.08595230191e-07
3.96112342525e-06
-1.76982324202e-07
3.97656486376e-06
-1.50428666491e-07
3.98974989456e-06
-1.28018101436e-07
4.00083015302e-06
-1.08872193751e-07
4.00998064447e-06
-9.22891138483e-08