/*--------------------------------*- C++ -*----------------------------------*\
| =========                 |                                                 |
| \\      /  F ield         | OpenFOAM: The Open Source CFD Toolbox           |
|  \\    /   O peration     | Version:  2.3.1                                 |
|   \\  /    A nd           | Web:      www.OpenFOAM.org                      |
|    \\/     M anipulation  |                                                 |
\*---------------------------------------------------------------------------*/
FoamFile
{
    version     2.0;
    format      ascii;
    class       volVectorField;
    location    "526";
    object      U;
}
// * * * * * * * * * * * * * * * * * * * * * * * * * * * * * * * * * * * * * //

dimensions      [0 1 -1 0 0 0 0];

internalField   nonuniform List<vector> 
10011
(
(9.84069063033 -1.23875976071 -1.34380780038e-21)
(9.74371118096 -0.732081129636 -2.42267223316e-21)
(9.54931248059 -0.468329919581 -2.90638994919e-21)
(9.34610285873 -0.308921560917 -7.53043213544e-21)
(9.16129102333 -0.208089782946 1.53840095512e-21)
(8.99547779306 -0.1424427421 6.4985336554e-21)
(8.84748446859 -0.0986301824143 -3.34433294702e-20)
(8.71723824834 -0.0689315075714 0)
(8.60491582835 -0.0487080827856 0)
(8.51087048065 -0.0350796726375 0)
(8.43596937305 -0.026255801219 6.17841945268e-20)
(8.38199009335 -0.0211918245053 6.52714330087e-20)
(8.35219289789 -0.0194422359857 -6.58630100646e-20)
(8.35233552888 -0.021564274443 -2.79932928701e-19)
(8.39677663594 -0.0298460237167 0)
(8.5159715228 -0.0512922939297 0)
(8.77216825751 -0.101929460966 -1.30466316192e-18)
(9.58380609097 0.228458475757 -2.65585834516e-18)
(10.0343803553 0.446593891573 -1.00378270475e-21)
(10.0275385243 0.425129633526 3.21595473052e-21)
(10.0007359742 0.337406007887 1.13391799782e-21)
(9.96608700708 0.266992724258 4.82004781354e-21)
(9.93397600363 0.212444308184 -1.49124623241e-20)
(9.90407579932 0.170184669791 6.28435123477e-23)
(9.87623512463 0.137561436706 1.59461213291e-20)
(9.85185810378 0.111974457846 0)
(9.8327675171 0.0912178239404 0)
(9.82089953667 0.0735342435224 9.25955913874e-20)
(9.8185227661 0.0574349641753 -1.43349081761e-19)
(9.82859590659 0.0414561532477 0)
(9.85525696728 0.0237290863247 0)
(9.9059572199 0.00105600804046 -2.12241101211e-19)
(9.98958250841 -0.0324291282322 0)
(10.120118624 -0.0895874847951 -4.82110578502e-19)
(10.3116381738 -0.209974380033 1.44367421333e-18)
(10.5683908756 -0.531438495245 2.06961807203e-18)
(9.99378658029 0.0252381169149 1.30649624249e-21)
(10.0070343375 -0.012188645235 -3.18762476162e-21)
(10.0297081651 -0.0330128657082 1.79075994843e-21)
(10.0466737509 -0.0301805948252 5.7908456984e-21)
(10.0630272118 -0.0215217328674 7.11754726816e-23)
(10.0800246563 -0.0134229990159 3.40099900592e-20)
(10.0979708865 -0.00723686584852 3.53412663983e-20)
(10.1180436273 -0.00349181400766 5.50089603443e-20)
(10.1417130755 -0.00253449596671 -1.86894152098e-20)
(10.1705158384 -0.00468086207405 -3.9543800165e-20)
(10.2062470833 -0.0104245988288 1.20398036969e-19)
(10.2512102427 -0.020716468662 1.66381603134e-19)
(10.3087399327 -0.0374636732328 1.75270654691e-19)
(10.3823207353 -0.0641657820597 4.85669165968e-23)
(10.4767663571 -0.107549814645 5.58190530243e-19)
(10.5980932942 -0.18168961995 -3.71451010206e-19)
(10.7443930758 -0.316265975695 -7.78379023437e-19)
(10.8879554768 -0.55288905978 1.57658060665e-18)
(10.0009144264 0.0175069015859 0)
(10.0171673898 0.0386175523456 2.40965867668e-21)
(10.0425631741 0.0481656237756 5.45285753775e-21)
(10.0627061568 0.0546248718837 -5.92467793926e-21)
(10.0825981628 0.0563173660309 2.86415594658e-20)
(10.1045264832 0.0536758235597 -3.0235174684e-20)
(10.1287686877 0.0481520136653 -2.11041011223e-20)
(10.156009868 0.0404716922509 -3.68333500062e-20)
(10.1872253383 0.0307012508179 3.03413130773e-20)
(10.2234769094 0.0184836079711 1.16515308991e-22)
(10.2660221626 0.00301450229095 -9.77298470308e-20)
(10.3164460879 -0.0171509995117 -6.79580957311e-20)
(10.3765675611 -0.0443595315831 0)
(10.4487100765 -0.0826320901823 -1.4166187995e-19)
(10.5350222386 -0.139137847993 -3.02367669982e-19)
(10.6353399522 -0.226529694559 -1.56286708373e-19)
(10.7397889195 -0.36581634316 6.49186969498e-19)
(10.8131631853 -0.579300758282 -1.33087088309e-18)
(10.0032834692 0.0157005336824 0)
(10.0192733041 0.0344044278408 5.09639898242e-22)
(10.0419455462 0.0366949929952 -5.44494201665e-22)
(10.0617902205 0.0348827392494 7.15895668878e-21)
(10.0822826576 0.0314237685922 -7.67379222298e-21)
(10.1052900959 0.0262029831294 -2.15959752626e-20)
(10.1309167168 0.0194530648048 2.27250346559e-20)
(10.1595719612 0.011094275204 -4.76056848844e-20)
(10.1919872696 0.0006528116889 -2.52364643872e-20)
(10.2289818587 -0.0126446512816 5.17884644025e-20)
(10.2714781584 -0.0298998642777 8.1027859216e-20)
(10.3205415877 -0.0527468720661 -1.11399794453e-19)
(10.3773125994 -0.0837760083544 0)
(10.4427212122 -0.127072721654 2.2418510984e-21)
(10.516607878 -0.189088983924 0)
(10.5954899181 -0.279528205637 2.55519342602e-19)
(10.6677776057 -0.410937580576 2.64117334837e-19)
(10.705058851 -0.590003218072 -2.57028995292e-19)
(10.0035667513 0.0150499793584 0)
(10.0180538163 0.0288219168837 -4.65438431729e-21)
(10.0387038739 0.0303894867705 -7.87839903545e-21)
(10.0585088232 0.0284887826478 -7.27798131946e-21)
(10.0792178012 0.0251788085738 -4.40055365926e-21)
(10.1022632792 0.0198852114108 2.29150844307e-20)
(10.1278127844 0.0124643948463 -4.80850726671e-20)
(10.1562002783 0.00275183887562 5.00785331583e-20)
(10.188003879 -0.00973705218206 -6.28208190065e-20)
(10.2238604765 -0.025757852855 4.33175249752e-20)
(10.2644101087 -0.0464463495926 2.31809067276e-20)
(10.3102666909 -0.0734914393196 1.15410787111e-21)
(10.3618545583 -0.10939019146 9.67108106665e-20)
(10.4189899615 -0.157803388549 -4.64738036161e-20)
(10.4799903743 -0.223904070113 2.02145865914e-19)
(10.5399441012 -0.314289563709 -1.005456654e-19)
(10.5882205346 -0.435299377925 2.13538167024e-19)
(10.6043450705 -0.585890127385 -1.06169092416e-19)
(10.0031761989 0.0117730463251 0)
(10.0159341625 0.0215984128044 3.44772288242e-21)
(10.0347888158 0.022895133123 4.47608755166e-21)
(10.0541662648 0.0205246773208 -2.79132595298e-21)
(10.0746131766 0.0161784020847 9.62561006062e-21)
(10.0971979703 0.00953352746042 -4.03177976499e-21)
(10.122139307 0.000439439309124 4.16171091933e-21)
(10.1496878517 -0.0112931952191 0)
(10.1802728938 -0.0261304711323 3.55426918692e-20)
(10.214317204 -0.0448725224009 0)
(10.2521708052 -0.0686725571786 7.5731185028e-20)
(10.2940221265 -0.0991550052424 -3.96757357552e-20)
(10.3396847698 -0.138575558602 3.90719301127e-20)
(10.38817985 -0.189953933008 1.67578774271e-19)
(10.437024813 -0.257042865874 -2.59257138857e-19)
(10.4811486468 -0.343764580062 2.63766366557e-19)
(10.5119941939 -0.452389249297 -1.81344323376e-19)
(10.5157425375 -0.578488086436 -1.76348911792e-19)
(10.0028587881 0.00892301104074 9.04697001255e-22)
(10.0141848808 0.0161605392135 0)
(10.0314186568 0.0168270070682 0)
(10.0499902694 0.0137182376328 8.09563194822e-21)
(10.0698440629 0.00831425573371 -1.67741375035e-20)
(10.0917286396 0.000488865003046 -4.37613618275e-21)
(10.1158278282 -0.00994432145866 2.2502156351e-20)
(10.1423091903 -0.0232264522275 -2.80062370741e-20)
(10.1714408612 -0.0398726055632 -1.93302772727e-20)
(10.2034624285 -0.060681055587 -9.88815432382e-21)
(10.2384830704 -0.0867613022903 -4.15484641853e-20)
(10.2763675672 -0.119601887768 2.15143694136e-20)
(10.3165228898 -0.16113538392 -1.54326588671e-19)
(10.357541395 -0.213724659213 4.4716673754e-20)
(10.3966937472 -0.27994067206 0)
(10.4293136844 -0.361884029188 4.78538419841e-20)
(10.4487133723 -0.459661590263 -4.78149380829e-20)
(10.4452559402 -0.56801916199 1.4585249957e-19)
(10.002608623 0.00651006325591 -8.57349164182e-22)
(10.012735945 0.0115580279727 0)
(10.0284868233 0.0112655517909 0)
(10.0461150402 0.00733588749827 -9.48761334939e-21)
(10.0652097278 0.000955981329288 9.74186831031e-21)
(10.0862486824 -0.00793998797727 0)
(10.1093655697 -0.0195617428758 4.15067087977e-21)
(10.1346349366 -0.0342045323167 -4.15291446843e-21)
(10.1621900925 -0.0523860653881 0)
(10.1921081965 -0.0748747384538 0)
(10.2242996084 -0.102698736967 -7.3649830149e-20)
(10.2583861565 -0.137170554192 0)
(10.2935092558 -0.179883826654 0)
(10.3280517133 -0.232612903218 -3.87905858058e-20)
(10.3593115063 -0.297015060512 -1.20690754345e-19)
(10.3832153541 -0.373995386474 0)
(10.3946167771 -0.462543701876 0)
(10.3867447322 -0.557528734832 4.09716581019e-20)
(10.0023549619 0.00405377610641 0)
(10.0112930602 0.00679234293174 0)
(10.0254606535 0.00524112889734 -4.49569997466e-21)
(10.0418779159 0.000302749819633 -2.75628721323e-21)
(10.0598988781 -0.00717827247014 0)
(10.0797572906 -0.0172473875247 3.79882562381e-21)
(10.101507349 -0.0301456416636 7.83213122623e-21)
(10.125131038 -0.0461940293902 1.20543895033e-20)
(10.1506209679 -0.0658971570733 0)
(10.1778891603 -0.0899637507714 0)
(10.206658553 -0.1192972087 6.81503277608e-20)
(10.2363485992 -0.154980892927 -3.45807834071e-20)
(10.2659235897 -0.19822229884 0)
(10.2937085056 -0.250203055484 7.27533358466e-20)
(10.3172301834 -0.311774485818 3.77561021056e-20)
(10.3331725235 -0.382946731815 3.71752230306e-20)
(10.3378300943 -0.462109118841 -7.44256680467e-20)
(10.3267095603 -0.544640924654 3.56590553559e-20)
(10.0020890377 0.00153513907655 2.01817793322e-22)
(10.0098718622 0.00187604093375 -2.10707267766e-22)
(10.0224071132 -0.00117224764738 4.29023634131e-21)
(10.0373735152 -0.00730853589424 2.62040015671e-21)
(10.0540031209 -0.0160167390579 0)
(10.0723108871 -0.027358667263 -7.21325953228e-21)
(10.0922632093 -0.0415856976419 0)
(10.1137471796 -0.0590295317889 0)
(10.1366204634 -0.0801591092838 7.45606542847e-21)
(10.1606427477 -0.105590475939 7.63397430514e-21)
(10.1853808855 -0.136061208207 -4.68909953374e-20)
(10.2101156773 -0.172385969339 3.18766889558e-20)
(10.2337414682 -0.215369983266 1.6153978689e-20)
(10.2546739757 -0.265648819583 1.60304778966e-20)
(10.2708209222 -0.323431323042 2.57020027816e-22)
(10.2796768405 -0.388149015838 3.28508845057e-20)
(10.2787743171 -0.45800980622 6.55915516473e-20)
(10.2652691069 -0.529127139424 -9.80733612488e-20)
(10.0018146203 -0.00101629553246 0)
(10.0084829443 -0.00310999533873 0)
(10.0193630767 -0.00785328763904 1.59928260386e-21)
(10.0326684191 -0.0153537138595 -4.05015017961e-21)
(10.0475958008 -0.0253867879292 -8.30974572964e-22)
(10.0639855454 -0.0380441742663 1.65403720627e-21)
(10.0817065007 -0.0535787602458 0)
(10.100553939 -0.0723115243905 6.78496390281e-21)
(10.1202680346 -0.0946508267134 -6.91138824564e-21)
(10.140485648 -0.121090183135 -6.93407616805e-21)
(10.1606681861 -0.152172084578 1.41877590041e-20)
(10.180038335 -0.188428245185 1.41281759071e-20)
(10.1975309009 -0.230286704948 1.42318886889e-20)
(10.2117738152 -0.277934075002 -1.47369559544e-20)
(10.2211372236 -0.331134634876 1.42278752139e-20)
(10.2238771996 -0.389031801633 -1.414985563e-20)
(10.2184991405 -0.449939477178 -4.40536706242e-20)
(10.2032486901 -0.510765913316 1.40238184347e-20)
(10.001536097 -0.00354711589237 -3.47475774286e-22)
(10.0071269273 -0.00805949486712 3.64602390279e-22)
(10.0163348771 -0.0146343629912 -3.69580894903e-22)
(10.0277922364 -0.023617348946 2.22204993312e-21)
(10.0407256403 -0.0350098908465 -7.55108455349e-22)
(10.0548474547 -0.0489458945315 1.50131786199e-21)
(10.0699321803 -0.0656681428774 0)
(10.085694872 -0.0854632798027 -6.16161944642e-21)
(10.1017872994 -0.108656800809 0)
(10.1177674826 -0.135600440789 6.26320221041e-21)
(10.1330543239 -0.166632991576 -6.2514732828e-21)
(10.1468955339 -0.202020879054 -1.27488053908e-20)
(10.1583591254 -0.241879250436 -2.67987801793e-22)
(10.1663590873 -0.286075129798 0)
(10.1697341684 -0.334124663698 -2.58355039343e-20)
(10.1673796126 -0.38510914579 1.31316933486e-20)
(10.1584988762 -0.437604016856 1.26500251204e-20)
(10.1419950476 -0.489252744051 -3.70580504744e-20)
(10.001255706 -0.00598934718454 6.29125783404e-22)
(10.0057952787 -0.0128418835711 -3.27313476383e-22)
(10.0133130502 -0.0212863715153 -2.31229898218e-21)
(10.0227625808 -0.0317807262533 3.58487463492e-24)
(10.0334387869 -0.0444796661989 3.34488355153e-21)
(10.044976292 -0.0595539688983 -1.34277423855e-21)
(10.0570750383 -0.0772238267643 -2.71949076111e-21)
(10.0693931614 -0.0977216050607 5.40099269401e-21)
(10.081533663 -0.121276127399 2.7294048143e-21)
(10.0930288891 -0.148094841287 5.51965122142e-21)
(10.1033197571 -0.178329384622 -1.65142403792e-20)
(10.111748781 -0.212028694484 1.09987024654e-20)
(10.1175756975 -0.249085375132 -1.10740283547e-20)
(10.1200196437 -0.289182186868 -1.11979982546e-20)
(10.1183332356 -0.33175036917 1.10337525669e-20)
(10.111895097 -0.375954180873 -1.08199254411e-20)
(10.1003647564 -0.420681131783 0)
(10.0830039929 -0.464189577461 2.12977221217e-20)
(10.0009754534 -0.00825217402546 -2.81179020086e-22)
(10.0044822575 -0.0172742067385 2.94187841123e-22)
(10.0102948579 -0.027497501097 1.47363437356e-21)
(10.017613691 -0.0394074454182 1.17686525457e-21)
(10.0258219079 -0.0532403274971 -2.97264602568e-21)
(10.0345242109 -0.0691850798406 5.93047545846e-22)
(10.0433793463 -0.087428557177 1.19575232086e-21)
(10.0520225581 -0.108138121617 -6.00715852027e-21)
(10.0600534698 -0.131445640726 0)
(10.0670319884 -0.157431044512 0)
(10.072475059 -0.186098212075 4.26044623286e-23)
(10.0758644224 -0.217346216148 -6.33499819318e-23)
(10.0766701969 -0.250942008945 9.75971017128e-21)
(10.0743896966 -0.286500962231 -1.44479392132e-20)
(10.0686006684 -0.323482282578 0)
(10.0590126972 -0.361203865618 -4.43963169421e-21)
(10.0455550475 -0.398849047219 1.86233007513e-20)
(10.0276628498 -0.435157708545 -2.73800444941e-20)
(10.0006985512 -0.010219846762 0)
(10.0031939933 -0.0211215892538 2.57706440996e-22)
(10.0073074166 -0.0328825881233 0)
(10.0124340381 -0.0459589300935 -1.55945308456e-21)
(10.0180542316 -0.0606086814723 -5.14480658379e-22)
(10.0237836234 -0.0770159456726 0)
(10.0292791607 -0.0953279466605 -1.04081175526e-21)
(10.034191985 -0.115648486581 5.18227046779e-21)
(10.0381612784 -0.138027206329 -1.45377827089e-23)
(10.040817216 -0.162449380867 0)
(10.0417865673 -0.188823903918 2.04761578062e-21)
(10.0407049915 -0.216971593865 4.12101245949e-21)
(10.0372375233 -0.246617961653 5.67958524655e-23)
(10.0311049967 -0.277394153226 0)
(10.0221146953 -0.308848644345 -3.98543565386e-21)
(10.010181002 -0.340468729182 4.07557877e-21)
(9.99537420978 -0.371684666867 -3.89638065918e-21)
(9.9771963501 -0.401598145004 7.64945854653e-21)
(10.0004283273 -0.0117467185368 -1.07463402143e-22)
(10.0019512577 -0.0240835872811 -2.82335810569e-22)
(10.0044209082 -0.0369632906139 3.36222311953e-22)
(10.007391446 -0.0507755590591 0)
(10.010442057 -0.0657587133424 9.03596232718e-22)
(10.0132296961 -0.0820747783374 -4.49071399485e-22)
(10.015445815 -0.0998329023762 1.34426267786e-21)
(10.0167925094 -0.119087243009 -2.69740429482e-21)
(10.016981067 -0.139832654505 -3.567543366e-21)
(10.0157372118 -0.162001912259 1.75854906372e-21)
(10.0128083618 -0.185463725471 -4.1024685926e-23)
(10.0079736679 -0.210022759867 0)
(10.0010567658 -0.235423675909 -3.48009499928e-21)
(9.9919392903 -0.261360497823 1.72394746546e-21)
(9.98057472102 -0.28749144208 6.91568390554e-21)
(9.96699112741 -0.313456531793 -3.36997207807e-21)
(9.95132139793 -0.338875176719 8.40465301231e-21)
(9.93308322285 -0.363114743636 0)
(10.0001991977 -0.0126631735328 1.05726739428e-22)
(10.0009045114 -0.0258087743146 0)
(10.0019881557 -0.0392025115658 -9.92545265733e-25)
(10.0031232543 -0.0531526480858 -2.19017751632e-22)
(10.0039731505 -0.067861932701 2.17490248304e-22)
(10.0042474854 -0.0834700118065 8.75005595957e-22)
(10.0036918074 -0.100061768765 -8.72252868667e-22)
(10.0020757155 -0.1176658427 0)
(9.99919153607 -0.136255560069 1.75861814351e-21)
(9.99485833567 -0.155751657702 -2.60906966858e-21)
(9.98892722128 -0.176026037115 -1.73513431455e-21)
(9.98128702907 -0.196907349896 0)
(9.97187012211 -0.218189090227 0)
(9.96065721444 -0.239640218922 -5.02558546982e-21)
(9.94768203261 -0.261017676336 4.95114495372e-21)
(9.93302609895 -0.282078275293 1.61265790824e-21)
(9.91684310368 -0.302572011018 -2.16716812105e-23)
(9.89864916778 -0.322048722715 -4.68598379885e-21)
(10.0000460022 -0.0129996824538 -5.81549565166e-23)
(10.0001977759 -0.0263769298142 0)
(10.0003343878 -0.0397478619556 0)
(10.000197422 -0.0533364097281 4.82704679054e-22)
(9.99949914049 -0.0673162648138 -7.24988832933e-22)
(9.99799105402 -0.0818205640457 -4.96624567478e-24)
(9.99547135909 -0.0969296081516 7.21468230332e-22)
(9.99177211023 -0.112669146108 -4.76321309018e-22)
(9.98675400743 -0.129015943799 4.83804078343e-22)
(9.9803086458 -0.145903320564 9.44960409406e-22)
(9.97236154089 -0.163226921535 0)
(9.96287408451 -0.180852018656 0)
(9.95184484478 -0.198622203737 0)
(9.93930982748 -0.216368883644 -2.71751087217e-21)
(9.9253430885 -0.233920905419 -1.22982886945e-23)
(9.91004862657 -0.251112378145 -4.44908938303e-21)
(9.89358490862 -0.26777456299 5.28253284355e-21)
(9.87546049149 -0.283574387481 1.7031291606e-21)
(9.99995541121 -0.0129914746205 -3.15477329928e-23)
(9.99978593609 -0.0262819401092 3.3187199933e-23)
(9.99937765948 -0.0393440295783 -1.9705635586e-22)
(9.99848713449 -0.0523104872893 -2.64217385839e-22)
(9.99682884113 -0.0653485311998 0)
(9.99417961366 -0.0786083234369 -5.26677466803e-22)
(9.99038486636 -0.0921803698365 0)
(9.98532891555 -0.106100130501 0)
(9.97892490231 -0.120359866858 -5.16685605791e-22)
(9.97111739979 -0.134914514369 5.15766873313e-22)
(9.96188362695 -0.149687518259 1.01882208174e-21)
(9.95123232965 -0.164578726858 -2.02664372213e-21)
(9.93920241413 -0.179472908334 1.00765985682e-21)
(9.92586112469 -0.194247917385 1.00158967128e-21)
(9.91130314129 -0.208782117588 0)
(9.8956416474 -0.22295966582 -9.52078874486e-22)
(9.87903507101 -0.236662395719 1.92452081807e-21)
(9.86098354976 -0.249634245754 1.84762716763e-21)
(9.99990139716 -0.0128280344424 -5.48523207273e-26)
(9.99957963389 -0.0259286783719 1.25312130991e-22)
(9.99894896856 -0.0385761399661 1.07723612917e-22)
(9.99771168173 -0.0507967921039 0)
(9.99552782592 -0.0628002692542 0)
(9.99219308102 -0.0747823202255 2.84260946154e-22)
(9.98760232973 -0.0868499721456 0)
(9.98168384187 -0.0990537396771 -2.82400077492e-22)
(9.97439071779 -0.111407277915 0)
(9.96570783778 -0.123889779497 0)
(9.95565052701 -0.136451130292 5.54801527847e-22)
(9.94426039699 -0.149020701886 0)
(9.93160269952 -0.161515818342 0)
(9.91776396093 -0.17384893447 0)
(9.90285084607 -0.185933682292 0)
(9.88698134874 -0.19768880493 0)
(9.87031511242 -0.209030990462 1.04068618878e-21)
(9.85234774641 -0.219759919348 -1.02272040527e-21)
(9.99985000866 -0.0125977994041 -1.85275369351e-23)
(9.99949083647 -0.0255646532592 -3.84497579297e-23)
(9.99892070405 -0.0377972464487 3.8613566428e-23)
(9.9976675024 -0.0492013072888 -3.86755948734e-23)
(9.99526984251 -0.0601230868167 -7.72884380346e-23)
(9.99156238088 -0.0708314790904 -3.87020365231e-22)
(9.98650199721 -0.0814469176577 0)
(9.98005201865 -0.0920373868659 3.08926217199e-22)
(9.97219563029 -0.102640665439 -4.5873619828e-22)
(9.96295082793 -0.113259016785 1.53001352588e-22)
(9.95236334845 -0.123865249571 -9.11480094572e-22)
(9.94049922927 -0.134413295828 6.0017854533e-22)
(9.92744206195 -0.144846465507 -5.97606408485e-22)
(9.91329081385 -0.155103682591 0)
(9.89815877801 -0.16512460327 -2.91904716057e-22)
(9.88216487573 -0.174852746935 0)
(9.86546836469 -0.18422941186 0)
(9.84755413474 -0.193093681143 -1.10848992831e-21)
(9.9997454567 -0.0123170545992 9.88275593109e-24)
(9.99941178644 -0.0253670529089 4.14589066471e-23)
(9.99919110297 -0.0372528362676 0)
(9.99820874215 -0.0478179378775 0)
(9.99581596645 -0.0576858198368 -4.16497098362e-23)
(9.99194870294 -0.0671916462411 2.92439101394e-22)
(9.98664342301 -0.0764588056562 -3.33400037005e-22)
(9.97988769266 -0.0855832839821 8.35063959772e-23)
(9.97168914754 -0.0946306131499 1.75582097938e-24)
(9.9620955049 -0.103621042382 1.66209179856e-22)
(9.95117720129 -0.112542948516 3.30977569226e-22)
(9.93901827724 -0.12136726107 -6.56466666586e-22)
(9.92571523787 -0.130055514219 1.90992302512e-24)
(9.91137549105 -0.138565348727 3.22585874127e-22)
(9.89611662941 -0.146855334739 2.74132082219e-24)
(9.88005851644 -0.154888435569 -3.13359534062e-22)
(9.863365966 -0.162629299983 3.16001718612e-22)
(9.84552194913 -0.169956537476 6.15191267402e-22)
(9.99949911159 -0.0119375864652 -1.05725260502e-23)
(9.99919073495 -0.025442724098 -1.10044060179e-23)
(9.99961919863 -0.0368657259898 2.20825508708e-23)
(9.99911061403 -0.0464165781856 5.55789485258e-23)
(9.99683369491 -0.055201699838 0)
(9.99293167732 -0.0635099532578 8.9692697639e-23)
(9.98751426286 -0.0714283319421 2.70489172692e-22)
(9.98057692871 -0.0790989585784 9.00276595698e-23)
(9.97215575753 -0.086628985751 1.80633949148e-22)
(9.96233089408 -0.0940623313012 -1.80230008468e-22)
(9.95119388592 -0.101405158174 1.79918564473e-22)
(9.93884143969 -0.108644469445 1.81289807065e-22)
(9.92537806143 -0.115756100334 5.38546203023e-22)
(9.9109149949 -0.122710306573 -5.34271960974e-22)
(9.89556896516 -0.129477043467 1.14481299967e-24)
(9.87945297659 -0.13603024021 3.52472240328e-22)
(9.86272535547 -0.142348709646 -1.740918572e-22)
(9.84482328471 -0.148333602712 3.40742377127e-22)
(9.99904785513 -0.0114247747821 0)
(9.9987507853 -0.0267070886216 0)
(10.0002097242 -0.0376692980951 -8.87891823877e-26)
(10.0002214467 -0.0460819866458 -4.77287834219e-23)
(9.99803466175 -0.0539707935576 0)
(9.99416986538 -0.0614349905618 -9.74483978767e-23)
(9.98873971116 -0.0684333185324 -1.47290139793e-22)
(9.98170299169 -0.075096359708 -4.93174445842e-23)
(9.97312217176 -0.081528336288 4.95367130208e-23)
(9.96311036409 -0.0877750073183 2.00045679706e-22)
(9.95177814308 -0.0938553696088 -1.00836096155e-22)
(9.93923380803 -0.0997751039759 -7.99424534421e-25)
(9.92559018591 -0.105529447998 -2.0087574425e-22)
(9.91096362732 -0.111106559241 9.96965043088e-23)
(9.89547243283 -0.116492254658 9.97612435641e-23)
(9.87922805232 -0.12167595917 9.94073796147e-23)
(9.86240012972 -0.126662186954 3.95576546722e-22)
(9.84441632222 -0.131406484652 -5.86458184688e-22)
(9.9976300087 -0.00820092082023 1.46213847657e-24)
(9.99706195496 -0.0268555201269 -1.54461886982e-24)
(10.0002513192 -0.0371078931861 -1.90456011876e-23)
(10.0007276417 -0.0433322755145 1.95023402871e-23)
(9.99838202564 -0.0489041789382 0)
(9.99441252559 -0.0541515695068 0)
(9.98889439895 -0.0592125597384 8.2767480345e-23)
(9.98171883723 -0.0642592314605 -2.80402072757e-23)
(9.97295802913 -0.069334368403 -5.67839378023e-23)
(9.96273754672 -0.0744103264475 0)
(9.95117088287 -0.0794495955123 0)
(9.93836915904 -0.0844171973725 0)
(9.92444975007 -0.0892795445407 1.74508546499e-22)
(9.90953294738 -0.0940044605581 -5.85771368399e-23)
(9.89373719015 -0.0985624742151 2.32793408289e-22)
(9.87716303178 -0.102929845906 -2.33933194942e-22)
(9.85995518648 -0.107102999427 0)
(9.84134716935 -0.111043979099 -1.14206106728e-22)
(9.99403543154 -0.00545864209548 -7.82208041943e-25)
(9.99223309827 -0.0304249290805 8.53350755057e-25)
(9.99873639386 -0.0467248900118 0)
(10.00056335 -0.0585719250512 -4.50205799299e-23)
(9.99832900731 -0.0671519783649 0)
(9.99401747542 -0.0728980902213 0)
(9.98782546407 -0.0769102861657 -1.6425461722e-23)
(9.97976167389 -0.0800331024499 5.02214086894e-23)
(9.97000618524 -0.0826987773016 -6.81130283039e-23)
(9.95873304358 -0.0851278883727 0)
(9.94607201764 -0.0874450298977 0)
(9.9321422362 -0.089716522196 0)
(9.91706727975 -0.0919688975142 7.02237814135e-23)
(9.90097299273 -0.0942025466433 -7.0412144358e-23)
(9.88398326815 -0.0964003251787 -7.06982424074e-23)
(9.86620375509 -0.0985332353658 7.04371768996e-23)
(9.84780348881 -0.100583552183 0)
(9.82797265683 -0.102511147936 0)
(9.98450324134 0.00425307305396 0)
(9.978406256 0.0215632603373 0)
(9.98576658998 0.0314114443409 0)
(9.98861343593 0.025205244044 9.23423670707e-24)
(9.98745387506 0.0134756592726 4.81346756215e-24)
(9.98340348797 0.00149197957901 1.50559299048e-23)
(9.9763214298 -0.00969361837872 -1.01414166021e-23)
(9.96640094494 -0.019882024676 -2.08481007583e-23)
(9.95404785403 -0.0289950889869 -1.04923904605e-23)
(9.93958952762 -0.0370620951794 -6.35080760719e-23)
(9.92326760457 -0.0441811324539 2.13541393031e-23)
(9.90529248651 -0.0504675989944 2.15459456814e-23)
(9.88586382241 -0.0560284964593 -6.43732512301e-23)
(9.86517195229 -0.0609533674966 8.61539798717e-23)
(9.84339737683 -0.0653091357297 -8.56271614611e-23)
(9.82069085752 -0.0691318962175 -8.58326752889e-23)
(9.79725154103 -0.0724288276253 -2.02514892858e-25)
(9.77174467399 -0.0750659938146 -4.23263654861e-23)
(10.0130253027 -0.318260428216 -5.33096467955e-25)
(10.0067567489 -0.32818506012 7.03705667257e-25)
(9.99059038923 -0.27433478821 -2.1527537482e-24)
(9.96758959382 -0.228666616137 1.19810582971e-23)
(9.94444407626 -0.192941463764 -1.55124371485e-24)
(9.92010525108 -0.164651773816 -2.17536000163e-23)
(9.89298426994 -0.142658469341 -3.17376281895e-24)
(9.86286411006 -0.125765752517 0)
(9.83003457896 -0.112799298557 -1.27832277735e-23)
(9.79480473143 -0.102820244851 5.13159658776e-23)
(9.7574674005 -0.0951241297824 1.28340404437e-23)
(9.71832588611 -0.0891804262881 -9.01867291834e-23)
(9.67768915129 -0.0845843657675 -1.28240425475e-23)
(9.63586005206 -0.0810227982475 -3.84847167228e-23)
(9.59313332891 -0.078245954839 7.69381158905e-23)
(9.54978492641 -0.0760350212588 1.02137871792e-22)
(9.50624303452 -0.0741590748428 -1.01891086536e-22)
(9.46082287121 -0.0720349573753 8.88161449626e-23)
(9.9534318057 0.912949174358 7.1672402e-25)
(9.95058755557 0.560529489617 4.27510571786e-25)
(9.85785531209 0.374604386552 3.23794780674e-24)
(9.73764258872 0.257353426675 0)
(9.61498522276 0.178931673736 0)
(9.49362276621 0.124974111566 0)
(9.37389262148 0.0867964056079 0)
(9.25666909501 0.0591743207348 0)
(9.14268001099 0.0388713548263 1.58997133725e-23)
(9.03226917163 0.0237699976472 0)
(8.92555621581 0.0124293112742 4.00710432266e-24)
(8.8225650278 0.00384558770188 2.02740355254e-23)
(8.7232712435 -0.00269226898806 8.15092522572e-24)
(8.62762209886 -0.00769467728772 8.1011295125e-24)
(8.53555759635 -0.0115299165734 -3.27238654309e-23)
(8.44701662009 -0.0144585662814 -4.08697936953e-23)
(8.36226462606 -0.0166206078427 0)
(8.27831236384 -0.0179433252019 -1.62930599786e-23)
(2.25139205089 -0.302351330992 -3.43648314784e-16)
(2.08831743203 -0.19924952134 0)
(2.0385717346 0.0476376782185 -4.3987076667e-18)
(2.1431417959 0.0510630731801 0)
(2.22019069782 0.0392963867978 0)
(2.25356585675 0.0292878118366 -3.17039366406e-18)
(2.27400100072 0.0229405400276 1.57206972551e-18)
(2.29244637169 0.0183694021584 0)
(2.30839460432 0.0147991418241 0)
(2.32107806941 0.0120172545949 2.53554600681e-19)
(2.33101095195 0.00986082301369 -2.52820890062e-19)
(2.33887329164 0.00817399555821 -1.25329260909e-19)
(2.3450982477 0.00683500909857 1.25130978307e-19)
(2.34996500862 0.00574136330924 0)
(2.3538294241 0.00482609688039 0)
(2.35684473149 0.00407046185753 -5.25525422978e-19)
(2.35911501688 0.00345769380049 1.54619504849e-20)
(2.36070269311 0.00297140605481 1.53996567473e-20)
(2.36161697859 0.00260468114306 -4.83866622815e-19)
(2.36181102347 0.00235920920432 4.83266145211e-19)
(2.36115671467 0.00223859236387 0)
(2.35943309899 0.00224777708925 -1.91565114594e-21)
(2.35630120343 0.00240799603496 9.83557640684e-19)
(2.35123132651 0.00277575792942 9.84171933469e-19)
(2.34334559135 0.00346310634564 -1.44463473921e-21)
(2.33116634155 0.00469651741182 7.25873817311e-22)
(2.31147250725 0.0070753975673 9.98792991204e-19)
(2.28128590299 0.0121571259932 0)
(2.18325585193 0.0312456613731 1.26647623494e-22)
(2.52179945756 -0.375089514316 1.50341361908e-16)
(2.44651729365 -0.372013568707 4.48060216025e-17)
(2.38970944118 -0.352945453202 -7.93068916774e-17)
(2.38397174727 -0.320868203238 1.56822393221e-16)
(2.3558764211 -0.289316839009 -4.35297011164e-19)
(2.36445523741 -0.139023336217 3.84351302128e-18)
(2.45987138616 -0.0792904848798 0)
(2.5470673451 -0.0620440013434 3.58298762884e-18)
(2.60247035121 -0.0509223084899 -2.64493156076e-18)
(2.6436439568 -0.040504973135 4.30279164315e-19)
(2.68016448947 -0.0322238026382 -8.46289855858e-19)
(2.71284220416 -0.0260012466027 0)
(2.74148051648 -0.0211575649922 0)
(2.76665845671 -0.017268144979 -2.03018920032e-19)
(2.78905689245 -0.0141182971396 1.010243325e-19)
(2.80912353352 -0.0115629440202 -6.96398086712e-19)
(2.82714445946 -0.00949377206684 7.88553092466e-19)
(2.84322000801 -0.00780799270403 4.87924750718e-20)
(2.85753779355 -0.00640618106754 3.63172427003e-19)
(2.87024862027 -0.00521217360753 -2.40507704116e-20)
(2.8814480458 -0.004169106747 1.19173877823e-20)
(2.89120624378 -0.003231694671 3.73106548154e-19)
(2.89962733353 -0.00232547834911 -3.82343584757e-19)
(2.90655119771 -0.0013481788885 0)
(2.9117435723 -0.000219039249686 0)
(2.91486253489 0.00116330572909 -7.40273345169e-19)
(2.91537984012 0.00298029942839 -2.21228444497e-18)
(2.91243013987 0.00554978540551 7.17648745916e-22)
(2.90460221161 0.00948276370039 0)
(2.88902492918 0.0161739798401 -2.20080275433e-18)
(2.86434017503 0.0294724950336 8.9881985848e-23)
(2.795092452 0.0628435567179 -1.46023415962e-18)
(2.7940496607 -0.423697718966 0)
(2.72416931943 -0.426179601554 0)
(2.66743155311 -0.411317565951 7.52061730054e-17)
(2.62628489038 -0.40820253842 -6.26006126174e-17)
(2.63747515982 -0.388385113362 -6.68353615761e-17)
(2.66263436901 -0.36770237068 5.96650039169e-18)
(2.66726680085 -0.344523326177 -5.91373702873e-18)
(2.67395451709 -0.304573255468 0)
(2.67647457326 -0.251628663725 -9.07294852704e-18)
(2.69912985835 -0.146485213517 6.31039431527e-18)
(2.76776045899 -0.0847343302103 0)
(2.84041674807 -0.0619258854944 7.72121578009e-19)
(2.89516976499 -0.0499022744966 -7.55674669567e-19)
(2.93864294419 -0.0404234382268 0)
(2.97759524918 -0.0334064397811 7.32378633605e-19)
(3.01318802898 -0.0284681172148 1.43875713309e-18)
(3.04529127739 -0.0247828427366 7.07101243386e-19)
(3.07424866552 -0.0218337482971 1.39763748085e-18)