/*--------------------------------*- C++ -*----------------------------------*\
| =========                 |                                                 |
| \\      /  F ield         | OpenFOAM: The Open Source CFD Toolbox           |
|  \\    /   O peration     | Version:  2.3.1                                 |
|   \\  /    A nd           | Web:      www.OpenFOAM.org                      |
|    \\/     M anipulation  |                                                 |
\*---------------------------------------------------------------------------*/
FoamFile
{
    version     2.0;
    format      ascii;
    class       volScalarField;
    location    "100";
    object      epsilon;
}
// * * * * * * * * * * * * * * * * * * * * * * * * * * * * * * * * * * * * * //

dimensions      [0 2 -3 0 0 0 0];

internalField   nonuniform List<scalar> 
10011
(
1739.51809161
3022.15152632
4034.77582699
4725.00744579
5151.51107143
5390.14586585
5505.02050899
5543.37911037
5537.89169275
5510.60181974
5476.56551002
5446.73163477
5430.24030952
5436.45190534
5467.73593369
5527.70916628
5618.16370085
6598.71375978
187.184260395
344.303158858
469.523516604
568.743192764
639.868733869
686.504918853
714.857567532
730.637214495
738.200715075
740.589604969
739.7742002
736.878315596
732.277873323
724.073008093
714.204649512
703.730634097
683.146843618
649.122462231
41.8152559769
72.306308067
98.0147382257
119.522724561
136.718118569
149.726438271
159.067383707
165.380652723
169.271550212
171.24660305
171.681121614
170.795021068
168.338027184
164.994258469
161.302995906
156.763129291
150.451452919
141.483253177
20.3487104288
27.9144510241
35.2773816113
41.9267196299
47.6782788495
52.4682107932
56.3269432731
59.3313901761
61.5725543957
63.1366040294
64.0735883952
64.3840701498
64.3544130318
64.0250727698
63.4089867123
62.4874375961
61.2266252175
59.6109169943
16.0513685977
18.1895202881
20.6092241979
23.0140485785
25.2585190018
27.2672841757
29.0099793055
30.4819356636
31.6900574076
32.6335654537
33.3406969027
33.8708599521
34.2459808462
34.4859387541
34.6108019771
34.6451091951
34.6151940486
34.486886317
15.0110000301
15.5371482871
16.2892949836
17.1451462256
18.0225936796
18.8687252669
19.6520192755
20.3551394839
20.9635120455
21.4872833809
21.9350432649
22.3140041285
22.633324424
22.9047567593
23.1439660402
23.3713826423
23.6037089744
23.800697621
14.7574046153
14.7792548186
14.9147417924
15.1335553918
15.4044476122
15.7007154226
16.001605845
16.291591728
16.5673919728
16.8248648316
17.0631857666
17.2840953832
17.4918651192
17.6935538568
17.8991763891
18.120576464
18.3633168812
18.5921942412
14.7058000095
14.5996613105
14.549110565
14.5494475137
14.5910476988
14.662579955
14.7532129377
14.8558655129
14.9650141928
15.0771213514
15.1906189438
15.3058599391
15.4251504955
15.5527756663
15.6946890699
15.8570281618
16.0400936941
16.2156206912
14.6919248429
14.5452916121
14.4267009972
14.3371551711
14.2750709163
14.2369729822
14.2192044513
14.2180429982
14.2304787075
14.2544468444
14.2889919673
14.3343903602
14.392217472
14.4652720648
14.557110142
14.6706345653
14.8037634973
14.933636887
14.6879408949
14.5281452169
14.3843268438
14.2573284294
14.1474191864
14.0543522062
13.9773337866
13.9153846283
13.867649948
13.8336192651
13.8132999366
13.8073439168
13.817085242
13.844403386
13.8912531301
13.9585430859
14.0432466564
14.1277728163
14.686901242
14.5234301857
14.3718276255
14.2321035365
14.1043706482
13.9887534033
13.8852967597
13.7940355316
13.7151022621
13.6488167772
13.5957604965
13.556819505
13.5331521189
13.5260187658
13.5363893666
13.5641732788
13.6064202517
13.6503196796
14.6866376061
14.5221587759
14.3683564957
14.2248777297
14.09150676
13.96818258
13.8549403084
13.7519209885
13.6594069815
13.5778445383
13.507849459
13.4501851565
13.4056858696
13.3750922729
13.3587682143
13.3562306374
13.3650897373
13.3764349867
14.6866007982
14.5217548577
14.3671693644
14.2224120655
14.0871340292
13.9611235437
13.8442845157
13.736636579
13.6383280861
13.5496362632
13.4709485566
13.4027193371
13.3453911472
13.2992690529
13.2643441457
13.240034706
13.2245884522
13.2120045072
14.6866719148
14.5216292461
14.3665889125
14.221107503
14.0847927821
13.9573533759
13.8385942355
13.7284134243
13.6268032124
13.5338420838
13.449671293
13.3744545809
13.3083178473
13.2512693466
13.2031028914
13.1632671441
13.1305447415
13.1009843998
14.6868149724
14.5216548494
14.3662771681
14.2202234342
14.083075689
13.9544909067
13.8342023058
13.7220145996
13.6177989138
13.5214814613
13.4330227758
13.3523870914
13.2795030186
13.2142179397
13.1562502799
13.1051261492
13.0600257902
13.0184060805
14.6869969774
14.5217732175
14.3661407426
14.2196143984
14.0817495367
13.952162533
13.8305321312
13.7165944459
13.6101353035
13.5109789167
13.418971288
13.3339591888
13.2557661207
13.1841677887
13.1188695706
13.0594767233
13.0054453486
12.9551949663
14.6871738951
14.5219186237
14.3660979254
14.2191946652
14.0807370405
13.9503089449
13.8275497371
13.7121485304
13.6038362821
13.5023752797
13.407546475
13.3191348543
13.2369148093
13.1606363198
13.0900141445
13.0247141599
12.9643716987
12.9080604358
14.6872915078
14.5220114157
14.3660512094
14.2188655975
14.0799607491
13.9488984983
13.8252936059
13.7088072825
13.5991395423
13.4960195434
13.3991953983
13.3084231223
13.2234568744
13.1440399776
13.0698991264
13.0007383945
12.9362982876
12.8760642648
14.6873321339
14.5220201205
14.3659518892
14.2185625726
14.079345997
13.9478534311
13.8236875541
13.7064960354
13.595963693
13.4918039766
13.393749289
13.3015426631
13.2149295898
13.1336522108
13.057444907
12.98603305
12.919214652
12.8567166498
14.6873244021
14.5219761593
14.3658187519
14.2182774042
14.0788457138
13.9470757352
13.8225692243
13.7049718206
13.5939659041
13.4892613192
13.3905871416
13.2976835888
13.2102960851
13.1281695034
13.0510457688
12.9786633505
12.9108532949
12.8474822269
14.6873005993
14.5219256155
14.3657119314
14.2180988826
14.0786101619
13.9468268446
13.8223774506
13.7049333089
13.5941994864
13.4899043504
13.391790566
13.299608203
13.2131087597
13.1320407849
13.0561475846
12.9851684647
12.9189413335
12.8573895757
14.6873026106
14.5220140463
14.3660251011
14.218915512
14.0803666034
13.9500970697
13.8278479079
13.7133747635
13.6064347085
13.5067763298
13.4141351821
13.3282316416
13.248769953
13.1754387422
13.1079128538
13.0458581725
12.9890360598
12.9372562768
14.6875789162
14.5234272433
14.3700691229
14.2277755466
14.0967514391
13.9770087025
13.8683740713
13.7705172497
13.6829799103
13.6052104208
13.5365977116
13.4764986134
13.4242578819
13.3792225939
13.3407532021
13.3082307507
13.2811528719
13.258912157
14.6903216841
14.5356571981
14.4013237947
14.2890310275
14.1989457871
14.1299989612
14.0803836144
14.0479574939
14.0305031594
14.025886344
14.0321423765
14.0475108563
14.0704396438
14.0995728702
14.1337329887
14.1718985406
14.2132565796
14.2565655713
14.7129626158
14.6219350423
14.5933198591
14.6220490959
14.6986757051
14.8126405939
14.9542048923
15.1152315739
15.2892372187
15.471189121
15.6572481322
15.8445191587
16.0308348435
16.2145812978
16.3945641122
16.5699037818
16.7400271235
16.9034994241
14.8728932389
15.1281852759
15.559429488
16.1018666027
16.7071861206
17.3410972521
17.9808508954
18.6120559028
19.225750017
19.8164722173
20.381072824
20.9179369755
21.4264625998
21.9067077302
22.3591517913
22.7845282973
23.1838238275
23.5566504177
15.87869531
17.7243488992
19.8394035465
22.0017630458
24.1209885959
26.1507957778
28.0686286968
29.8651141774
31.5374779368
33.0866796598
34.5161337347
35.8308785435
37.0369449227
38.140871186
39.1493121835
40.0687049419
40.9052327767
41.6634145024
22.1640690939
31.1450848271
39.4552230189
47.1870193021
54.4030385017
61.0735028036
67.1820026008
72.7280434462
77.7212153505
82.1813927089
86.1379070674
89.6268708737
92.6881211908
95.3625046523
97.6895515822
99.705113095
101.438512367
102.904255224
68.0721454694
115.216171478
155.506705285
193.053943169
227.956354217
259.518199136
287.393108955
311.521149655
332.033129976
349.195583192
363.356143778
374.89403709
384.184167885
391.574708194
397.374149833
401.841610083
405.16689867
407.389170683
723.169183442
1065.38336477
1375.3839707
1654.00249244
1910.28980289
2137.122446
2331.0617139
2491.67225699
2620.6054334
2720.74060316
2795.53337276
2848.57336401
2883.30912367
2902.89548453
2910.12559588
2907.41587946
2896.85088957
2879.93613262
77.4400888347
27.9114965268
30.9203602721
27.9036818963
29.2826011083
31.3221102707
33.6348260984
36.0212642747
38.3537153071
40.5564445566
42.5946356526
44.4588299148
46.1532267144
47.6889874712
49.0803458234
50.342197232
51.4887257881
52.5326393545
53.4847385758
54.3535704446
55.14506525
55.8619730048
56.5029249431
57.0607428741
57.5191325303
57.8472106424
57.9843171581
58.0384963897
57.5402407598
92.1691251658
43.7687159338
31.5117923111
23.7626932882
19.8912663097
19.294105908
19.2045045253
19.4511792101
19.9795789964
20.6551847656
21.3748904055
22.0843113919
22.7548970557
23.3711725862
23.926335834
24.419380756
24.8526899765
25.2304463249
25.5576962108
25.8397929581
26.0820692827
26.2896850724
26.4675933892
26.6206133533
26.7536182489
26.8719333485
26.9821509886
27.0939201639
27.2239063374
27.4176844452
27.8886442057
29.347804396
108.22616241
53.8225715829
40.0869838977
32.1078633735
24.9861912271
21.2800006319
19.8384156681
19.4304823351
19.6623602924
20.042811454
20.1552258918
20.1545312707
20.201782014
20.3077623149
20.4449492632
20.5926936014
20.7365989215
20.8659698113
20.9737974563
21.0563420495
21.1122545024
21.1418130391
21.1463867385
21.1280523797
21.0893381717
21.0330784153
20.9623737932
20.8806546938
20.7918889547
20.701028468
20.6149365704
20.5443875339
20.5085491869
20.5517414571
20.8049268706
21.625737542
117.849644034
59.3290165143
44.390489377
35.2772284653
27.589964668
23.1715115246
21.0383534318
20.0924905903
19.7988873407
19.8331934083
20.0125611328
20.3134361431
20.7147644585
21.0981547645
21.2499427232
21.2275353652
21.1497994579
21.0575674301
20.9567678698
20.8490515849
20.7342642336
20.610519751
20.4757331314
20.3284764155
20.1681160218
19.9947421321
19.8090627297
19.6122835407
19.4060088256
19.1921845358
18.9731039191
18.7514911159
18.5307109737
18.3151946317
18.111286337
17.9289815711
17.7854971135
17.7157816194
17.7960536779
18.1950340613
126.287754271
64.1863461291
48.2089735063
38.1508773613
29.9442948984
24.9696672531
22.4420652439
21.1951960947
20.6758741808
20.4960909755
20.4092592558
20.4642750892
20.6236393519
20.8210232629
21.0688886849
21.3516540729
21.6438027653
21.8897932277
21.9756269994
21.9129888665
21.7702273901
21.5838413592
21.367733626
21.1305271749
20.877979662
20.613184468
20.3378072906
20.0529894488
19.7597288925
19.459064052
19.1521715075
18.8404087254
18.5253306385
18.2087161318
17.8926224855
17.5794978522
17.2723900252
16.9753350254
16.6940728301
16.4374219826
16.2197989037
16.0671405421
16.0246785372
16.1732473907
133.092884868
68.2645249523
51.5193493508
40.6978974685
32.0975085132
26.6623937305
23.7946644923
22.2933281525
21.6139070978
21.347501577
21.2128298059
21.2215960394
21.3151409566
21.4053829346
21.4989149434
21.6264874607
21.7668415118
21.8978894274
22.0424385528
22.1942853744
22.3311709491
22.4185309334
22.3958766671
22.2616259194
22.05262011
21.7951975537
21.5028673406
21.1849906388
20.8485827917
20.4984051966
20.1377201156
19.7689598466
19.3940828937
19.0147917365
18.6326813293
18.2493363177
17.8663976372
17.4856266602
17.1089842015
16.7387507096
16.3777198583
16.0295284529
15.6992204383
15.3942472684
15.1260566021
14.9131962765
14.7801039976
14.772588811
150.771104845
79.1362812837
63.0903657749
51.7540577423
42.0116600473
33.5538404177
28.0121689491
24.9858296516
23.324290702
22.5280617184
22.1934255695
22.0258981981
22.0206644857
22.117046178
22.2204357893
22.3236705516
22.4440248584
22.5505321251
22.6141308718
22.6598833298
22.7088471416
22.7490493768
22.7702364487
22.7867074106
22.7972394243
22.7865984854
22.731841834
22.5999831108
22.3869728308
22.1125531318
21.7945506077
21.4441003729
21.0694779641
20.6772491694
20.2723012427
19.8582649229
19.4379605017
19.013675456
18.5873506809
18.160723709
17.7354320281
17.3130948304
16.8953869288
16.4841242662
16.081375666
15.689630463
15.3120594582
14.952930781
14.6182817316
14.3167976012
14.0614321653
13.8648741274
13.7542550794
172.462779019
90.6893554424
72.4394520318
59.7006413036
48.0165550695
38.4647015305
31.888765422
28.0270957857
25.5802372653
24.1157909201
23.3787499672
23.0542781388
22.8843474281
22.8755364396
22.9762048131
23.0934774
23.2151822703
23.3565769344
23.4876015077
23.5763371794
23.6392488308
23.6890403433
23.7082170606
23.6847379991
23.636553871
23.5790797464
23.5082539498
23.4191891176
23.3191684537
23.2078878773
23.0753148996
22.9062193449
22.6819809823
22.3990631488
22.0682954822
21.7015654884
21.3075427632
20.8930686459
20.463784075
20.0241278825
19.577558759
19.1268398033
18.6742389615
18.2216749553
17.770837007
17.3232791665
16.8804994048
16.4440126276
16.015430983
15.596562122
15.1895453359
14.7970483116
14.4225546705
14.070784638
13.7481106011
13.4633799034
13.2228342765
13.0425446064
201.408850523
105.901519274
84.9460081876
70.4046093148
56.4979123673
45.3372197634
37.3932497591
32.5599388564
29.3545761966
27.2590631636
26.0074629681
25.2534041441
24.6967712296
24.3269859048
24.176362932
24.1830529656
24.2410560247
24.3276073693
24.45077713
24.577964856
24.6746373598
24.7516216713
24.818718412
24.8575696454
24.8532539956
24.8175733005
24.7601340577
24.6735560528
24.5531297548
24.4098635851
24.254231433
24.0859396693
23.902763881
23.7079418298
23.5009369216
23.2750388968
23.0201537964
22.7253631277
22.388101232
22.0145164154
21.612561605
21.1888245469
20.7487990182
20.2971568157
19.8377209024
19.373571704
18.9072239844
18.4407655792
17.9759682886
17.5143814811
17.0574129742
16.6063977737
16.1626650623
15.7276076265
15.302765153
14.8899292407
14.4912861945
14.1096033814
13.7484728245
13.4124472905
13.1074164592
12.8360508883
12.6071780585
238.253736421
125.174298388
101.194036007
84.3754250119
67.8618754013
54.5968871835
44.9418403575
38.9463391625
34.8572991104
32.0473692607
30.224749914
29.008456742
28.0673777853
27.366944121
26.926388584
26.6722956159
26.4815517681
26.3256011768
26.2283717414
26.2007012705
26.2092646612
26.2173072955
26.2299704822
26.2520276162
26.2625467563
26.2437661034
26.2028822436
26.1462090246
26.064494963
25.9501359106
25.8094611115
25.6487129417
25.4654191564
25.2580262299
25.0330003714
24.7970609412
24.5511734752
24.2943465943
24.0276646785
23.7501893769
23.4572040855
23.1419043242
22.7975906708
22.4224671187
22.0201356619
21.5959610251
21.1548889869
20.701262169
20.2388782829
19.7709401527
19.3000971502
18.8285503128
18.358147575
17.8904654601
17.4268818255
16.9686413998
16.516913941
16.0728511721
15.63764518
15.2125951691
14.7991863712
14.3991883382
14.0147679511
13.6486133159
13.3039133094
12.9844858482
12.6910616156
12.4287434886
282.471854946
149.145962078
121.307749673
101.759145808
82.2573884813
66.3922717232
54.6734474802
47.3259194545
42.2281084476
38.6176320186
36.1627620104
34.4380193266
33.0709268271
32.0011915113
31.2379519972
30.6998340851
30.2516860383
29.8549029186
29.5301083521
29.2854426016
29.0838400991
28.8845853377
28.6959778837
28.5374013988
28.4096913858
28.2921711539
28.1682444623
28.0428944993
27.9196746613
27.7876927006
27.6372981516
27.4714936759
27.293663906
27.0992271268
26.8839444658
26.6506734039
26.403005323
26.140404923
25.8625411998
25.5730908246
25.276103013
24.9725770033
24.6619185591
24.3440646966
24.0177559313
23.6794576853
23.3244129409
22.9482673429
22.5497077065
22.1308723054
21.6953985657
21.2469674619
20.7889738425
20.3244696171
19.8560955594
19.3860857185
18.9163249177
18.448413695
17.9837269988
17.5234712623
17.0687357633
16.620541543
16.1798873868
15.7477982487
15.3253760712
14.9138577931
14.5146785264
14.1295337692
13.7604259981
13.409566169
13.0793845538
12.7695824883
12.4836233656
355.459090305
189.985961449
157.899210662
139.516810665
120.582168349
98.8593293357
80.1741666267
66.2720772567
57.51552527
51.3670853561
46.9222232231
43.8093514411
41.5591691874
39.7515395483
38.29846706
37.2001930543
36.3667655723
35.648528885
34.9949523197
34.4245038029
33.9448621182
33.5176973864
33.1002069875
32.6977930028
32.3291878162
31.9946840823
31.6731149394
31.3485995072
31.0305046415
30.7322757716
30.4540708458
30.184348157
29.9146260998
29.6474098038
29.3848233153
29.1213508447
28.8513000666
28.575129434
28.2940806372
28.0055795731
27.7069381536
27.3990202584
27.0835180098
26.7603107792
26.4293099465
26.0923986755
25.7517637831
25.4079556587
25.0603640742
24.7082873068
24.3502482106
23.9834254572
23.6043163243
23.2098843793
22.799077375
22.3731342278
21.9345119299
21.4859224227
21.0299926802
20.56915284
20.1055581499
19.6410701166
19.177284044
18.7155707484
18.2571191703
17.8029799262
17.3541063689
16.9113942048
16.4757190142
16.0479745788
15.6291113275
15.2201765559
14.8223524435
14.4369827738
14.0655731308
13.7096592004
13.370773902
13.0481146717
12.7444531115
446.379109516
240.26095437
200.324359504
177.685760189
154.368284258
127.284970418
103.701759613
85.9982961271
74.7601149946
66.6871563806
60.5469894616
55.8950651675
52.5109440801
49.9666003815
47.8543341039
46.1031953246
44.7270706251
43.6367957134
42.6727392809
41.7765916804
40.9685818578
40.2583093862
39.6063887401
38.9674319246
38.3436059118
37.753770837
37.1988102818
36.6580977481
36.1158223188
35.5806964854
35.0661470926
34.5726703963
34.0896678634
33.6109364967
33.1432463715
32.6954104433
32.2681068988
31.8552007217
31.4518900235
31.0588217124
30.6768060944
30.302761058
29.9329777811
29.5665452416
29.2032248236
28.8410243365
28.4777945344
28.113161771
27.7474594753
27.3803232081
27.0114266359
26.6414364019
26.271236414
25.9008221873
25.529390622
25.1558612621
24.7786340955
24.3953196425
24.003184239
23.599939972
23.1846562219
22.757982702
22.3215482309
21.8773212159
21.4273100637
20.9734318673
20.5174312775
20.0608472435
19.6050216217
19.1511231134
18.7001783285
18.2531038849
17.8107399532
17.3738813198
16.9433085957
16.5198172908
16.1042470455
15.6975072834
15.3005978345
14.9146113574
14.540707514
14.1799723422
13.8333786674
13.4999215153
13.1821156643
593.535200141
321.611409487
269.847602477
243.755678219
222.218460827
195.484752724
162.699027124
133.05837675
110.633749688
96.3920963085
86.0947244037
78.1576823186
72.0118320468
67.4057600932
63.8464305494
60.8195340647
58.1812820411
55.9603976447
54.1912882316
52.7674936435
51.5047922801
50.3316014747
49.265594606
48.3139049204
47.4316961678
46.5681847228
45.7210133697
44.9085206918
44.1315673643
43.3689093164
42.6037486168
41.8433627446
41.1009708683
40.3774378658
39.6628719411
38.9516694848
38.2508094435
37.5696042569
36.9096714211
36.2664970706
35.6379803156
35.0285441189
34.4438018426
33.8846990071
33.3480854077
32.83102193
32.3330471584
31.8539117238
31.3913486041
30.9424536247
30.5054827569
30.0791394769
29.6613623794
29.2499975725
28.8438274224
28.4421908275
28.0442550657
27.6492778877
27.2570614312
26.8675668963
26.4802840322
26.0941739256
25.7079221874
25.3198639821
24.9278859001
24.5297307227
24.1235412835
23.7084298966
23.2846404506
22.8532061664
22.4155226223
21.9731000175
21.5274337079
21.0799233525
20.6318330313
20.1842863479
19.7382785835
19.2946975847
18.8543479384
18.4179772351
17.9863012394
17.560028804
17.1398845244
16.7266297256
16.3210781065
15.9241032298
15.5366261749
15.159575193
14.7937496167
14.4397894844
14.0966583213
13.7668219816
793.842623601
431.778265587
362.270490869
327.405446128
299.061825552
264.283386396
221.478299352
181.891021204
151.604309576
132.332394631
118.306221869
107.2661218
98.3397172101
91.1889215734
85.6505697495
81.2300696481
77.4029328662
74.014846216
71.0986731256
68.692712962
66.6773623716
64.8379982954
63.0801727015
61.4283083254
59.9322073894
58.6026388705
57.3845525058
56.2150482185
55.0830266365
54.0024053622
52.9701879727
51.9610979163
50.9547455179
49.9551972283
48.9740598886
48.0113293563
47.0564565831
46.1031402269
45.1575023462
44.2285186978
43.3180290489
42.4221178245
41.5393306353
40.674657149
39.8345178251
39.021177472
38.2334425334
37.4711189118
36.7371224792
36.0349464222
35.3653982584
34.726733804
34.1168429124
33.5345580285
32.978759091
32.447226738
31.9371958688
31.4463259305
30.9725289747
30.5134176929
30.0665965609
29.6302241516
29.2029009294
28.7833066378
28.3702628813
27.9629452593
27.5606657516
27.162502266
26.7672073952
26.3733198789
25.9791541113
25.582779663
25.1822435882
24.7759424529
24.3629921393
23.943347003
23.5176033272
23.0867124622
22.6517826505
22.2139616453
21.7743590868
21.3340048217
20.8938347023
20.4546950321
20.0173548223
19.5825244054
19.1508750001
18.7230598322
18.2997331592
17.8815686313
17.4692731533
17.0635960008
16.6653265013
16.2752735174
15.8942176768
15.5227861258
15.1614374885
14.8091973863
14.4685857983
1058.95725583
577.796248076
484.55363268
437.998592879
400.839840299
356.160579487
301.21280823
248.206731865
207.173947578
181.102663557
162.083334288
147.007914833
134.654868774
124.548688658
116.52635678
110.020801638
104.393728684
99.3362272468
94.806860114
90.8801009139
87.5942145044
84.8046215164
82.2628656524
79.8523100603
77.5912554297
75.5274639411
73.6645831602
71.9340714787
70.2583026616
68.6199646324
67.0446211502
65.555452167
64.1497051651
62.7977973926
61.4729822637
60.1730902138
58.9054353887
57.6663452526
56.4422160775
55.2240473519
54.0155648985
52.8240469861
51.6503302346
50.4898306511
49.3404587838
48.2065887238
47.0943186507
46.0060966293
44.9412751771
43.9003567403
42.8870528578
41.9059343166
40.9593909914
40.0478158417
39.1718004786
38.3332563368
37.5342306314
36.7751239445
36.0546522938
35.3709265902
34.7222370588
34.1067489202
33.521953483
32.9649065664
32.4327797142
31.9228775712
31.4324321498
30.9587401576
30.4994909156
30.052747997
29.6167710376
29.1900120641
28.7711992844
28.3591982235
27.9527862184
27.550556462
27.1509670818
26.7523379448
26.3528752689
25.9508295202
25.5447530375
25.1337499411
24.7175634022
24.2964646542
23.8710578735
23.4421260938
23.0105283956
22.5771292387
22.1427564132
21.7081824317
21.2741225441
20.8412415856
20.4101670914
19.981504578
19.5558542995
19.1338266124
18.7160560025
18.3032105554
17.8959955603
17.4951455476
17.1013985517
16.715446745
16.3378229125
15.9689037861
15.6078235409
15.2572114611
1461.56317937
799.342900667
670.976445449
608.822069711
565.172431773
523.39083711
470.439719609
403.771698848
333.789294282
279.263879501
244.852632186
219.772487555
199.791196597
183.228455573
169.421449883
158.221830666
149.022783695
141.125625708
134.069636625
127.72151688
122.123245375
117.306798781
113.119475567
109.280996413
105.636300548
102.174606444
98.9498625084
96.0175775042
93.3737430118
90.9329295604
88.6004562176
86.3465932469
84.191437003
82.1542233062
80.226090121
78.3696683017
76.5514858625
74.7681001832
73.0347561213
71.3611397254
69.7418476877
68.1606506988
66.6049042499
65.074193298
63.5722421382
62.0968816795
60.641013835
59.2003099498
57.7771664126
56.3760636603
54.9984277812
53.6429100157
52.3094142796
51.0011778429
49.7225304437
48.4760807737
47.2627837763
46.0840140367
44.942667605
43.8420891107
42.7844396229
41.7706614228
40.8014992888
39.8780942046
39.0014234997
38.1713418488
37.3864969775
36.6448713524
35.9442628628
35.2822264259
34.6558536656
34.0618998179
33.4971268359
32.9583843659
32.4425656815
31.946697403
31.468136685
31.0045817284
30.5539891989
30.1145411398
29.6846707799
29.2629593672
28.8479877186
28.4382545646
28.0321864789
27.6281398272
27.2244303429
26.81945614
26.4118738693
26.0007743058
25.5857467212
25.1668183491
24.7443207261
24.3187721166
23.8907897033
23.4610276206
23.0301360292
22.5987412186
22.1674388023
21.7367973643
21.3073667108
20.8796904963
20.4543188239
20.0318214779
19.6127979337
19.1978844122
18.7877529872
18.3831009843
17.9846220829
17.5929590115
17.2086007289
16.8319050032
16.4621300501
16.102050946
1990.10148052
1096.3079293
925.232151513
842.868400669
787.119271293
739.987938751
692.020668918
630.458281686
551.350074352
459.638917309
386.976237452
341.262618613
308.078818964
281.620395309
259.463253479
240.474869224
224.094276819
210.277944996
198.538287356
188.337122956
179.157071044
170.794534718
163.262374247
156.600411504
150.685126745
145.251884871
140.13763221
135.306223579
130.789067856
126.628707072
122.815391471
119.260402978
115.861119468
112.575915299
109.417701356
106.416757457
103.594097726
100.93795788
98.4044593927
95.9524567979
93.5712494568
91.2700512633
89.053553997
86.9115217275
84.8234614509
82.7742221006
80.7638243846
78.8004223118
76.887775115
75.021169231
73.1914025035
71.3919860772
69.6227824471
67.8857182823
66.1798423239
64.5017298528
62.8494303205
61.2245713734
59.6300897815
58.0676160255
56.5374007944
55.0402843048
53.5788236174
52.156250563
50.7750099829
49.4366471571
48.1427840775
46.8957047954
45.6978436604
44.5509171546
43.4558072345
42.4130208172
41.4229915598
40.4858047253
39.6006862407
38.7659318974
37.979192097
37.2377851018
36.5387419243
35.8787516686
35.2542664837
34.6617324075
34.097687688
33.5587945736
33.0419042144
32.5441854062
32.0631366783
31.5965443259
31.1424445408
30.6991139083
30.264984835
29.8385456214
29.4182633406
29.002582117
28.5899172478
28.1786911164
27.767420791
27.3548443512
26.9400457628
26.5225055165
26.10206743
25.6788482864
25.2531482554
24.8253788113
24.3960088726
23.9655277863
23.5344249007
23.1031810402
22.6722691535
22.2421600599
21.813332115
21.3862816107
20.9615334515
20.5396491477
20.1212313844
19.7069211292
19.2973850725
18.8932865808
18.4952412437
18.103724376
17.7191113559
17.340778365
16.971675184
3408.37720798
1882.35913468
1588.43098907
1441.92130388
1337.00714748
1235.48355842
1106.10563067
943.893938483
759.114890116
612.397014437
528.068443399
471.797525157
429.313764041
394.672824855
365.100089584
339.085376483
315.934518396
295.927470115
278.756891946
263.962386863
250.720130347
238.502484767
227.175734047
216.811186145
207.49758535
199.142714482
191.486161859
184.354533186
177.676643375
171.446262381
165.683887915
160.368242847
155.402142997
150.673868197
146.133958831
141.788776497
137.664138056
133.775962482
130.104583932
126.59573998
123.198671599
119.898338027
116.707352041
113.642352815
110.709355351
107.895484323
105.174553226
102.525293686
99.9432648
97.433458445
94.9964359124
92.6237126107
90.3025520636
88.0246029491
85.7903075443
83.6043777981
81.4685882765
79.3796255541
77.3318511708
75.3214248357
73.3481743697
71.4132830299
69.5166217762
67.6567554639
65.8329937253
64.0466200163
62.2997762749
60.5940863913
58.9304558291
57.3100531357
55.7349535178
54.2076320143
52.7301736113
51.3041208027
49.9309320508
48.6122943778
47.3498588857
46.1447453265
44.9974249812
43.9079190081
42.8759559727
41.9008313945
40.9811280244
40.1146757242
39.2987279695
38.5301841233
37.8056763394
37.1215981577
36.4742003767
35.8597675278
35.2747119605
34.7156295607
34.179353162
33.6630354732
33.1641535313
32.6804851888
32.2100615489
31.7511453916
31.3021555551
30.8615892141
30.4279592262
29.9997795786
29.5755614741
29.1538410176
28.7332496607
28.3126053913
27.8910040743
27.4678607651
27.0428917173
26.6160530383
26.1874722583
25.7573907549
25.3261175843
24.893997791
24.4613925348
24.0286709215
23.5962084711
23.1643920091
22.7336267191
22.3043457234
21.8770183649
21.4521576546
21.0303227391
20.6121159319
20.1981690683
19.7891165525
19.385554435
18.9879571821
18.5967353441
18.2113651411
17.835002539
4300.86815312
2407.30378485
2053.02097201
1876.91497323
1739.80921683
1578.48508398
1373.80960365
1099.0250682
891.355965685
767.635020945
682.841355788
617.85028752
564.225784515
517.634239693
476.199523534
440.697928806
410.907339975
386.307399279
365.153408249
346.059204351
328.385258498
311.954153221
296.820323342
283.10590859
270.773446759
259.568927867
249.266615288
239.671989805
230.655881497
222.195785262
214.318054124
207.010718083
200.181315038
193.718134438
187.565571173
181.716237498
176.180936296
170.964541188
166.038614047
161.341029402
156.814727967
152.440497386
148.226319902
144.185195936
140.319025466
136.609312817
133.02334859
129.535050267
126.139066798
122.843947321
119.657606396
116.579492952
113.598527319
110.698287668
107.866736546
105.10149411
102.404888407
99.7760315707
97.2086757975
94.6946870459
92.229053144
89.8120293498
87.4462684459
85.1326453773
82.8690067035
80.6518818664
78.4789289155
76.3500138472
74.265933265
72.2269323799
70.2325803799
68.2828477089
66.3788289318
64.5221791019
62.714371022
60.9564984261
59.2497725836
57.5958904366
55.9967658187
54.4540875332
52.9691786758
51.5432064379
50.1773432152
48.8726107013
47.6295819683
46.448276925
45.3282450852
44.2686448582
43.2681684927
42.3248899389
41.4362520472
40.5991902169
39.8103060647
39.0659691364
38.3623837546
37.6956878744
37.0620947253
36.4579812826
35.8799530742
35.3248848517
34.7899798679
34.272767377
33.7710801654
33.2830098842
32.8068718862
32.3411372279
31.8843701208
31.4351676469
30.9921455311
30.5539279793
30.1191750811
29.6866330427
29.2552042318
28.8240159819
28.3924545821
27.9601562075
27.5269644892
27.0928787313
26.6580074209
26.2225299461
25.7866691276
25.3506736481
24.9148100048
24.4793607667
24.0446283151
23.6109411055
23.1786620216
22.7481960248
22.3199967365
21.8945687549
21.4724646263
21.0542723943
20.6405909178
20.2319944529
19.8289562575
19.4319255192
19.0404585191
18.6579481722
4382.57375669
2527.22102099
2221.99540123
2088.5993384
1987.77714788
1852.8714651
1658.92833393
1324.77568888
1073.68139759
928.758052887
831.736025322
757.726987162
695.643115549
640.871100524
592.93917878
552.900954794
520.150205417
491.826736248
466.002321548
441.884149527
419.349221096
398.660991887
380.035505247
363.320469402
348.240208282
334.37751635
321.352873847
308.98365144
297.250995261
286.205023803
275.870322531
266.186434158
257.053479192
248.399660385
240.181258535
232.375828998
224.987930542
218.021540916
211.444404735
205.187971906
199.189254549
193.424169465
187.894744058
182.608001553
177.559857085
172.725235016
168.064812123