/*--------------------------------*- C++ -*----------------------------------*\
| =========                 |                                                 |
| \\      /  F ield         | OpenFOAM: The Open Source CFD Toolbox           |
|  \\    /   O peration     | Version:  2.3.1                                 |
|   \\  /    A nd           | Web:      www.OpenFOAM.org                      |
|    \\/     M anipulation  |                                                 |
\*---------------------------------------------------------------------------*/
FoamFile
{
    version     2.0;
    format      ascii;
    class       volScalarField;
    location    "100";
    object      k;
}
// * * * * * * * * * * * * * * * * * * * * * * * * * * * * * * * * * * * * * //

dimensions      [0 2 -2 0 0 0 0];

internalField   nonuniform List<scalar> 
10011
(
0.77332951174
1.11758819832
1.35499059745
1.5053421435
1.59448795517
1.64315660358
1.6661218599
1.67341575418
1.6716805751
1.6652811374
1.65712890457
1.64926625474
1.64329102071
1.6406807085
1.64117159288
1.64411459121
1.6472260525
1.71966883154
0.49277253613
0.515729296694
0.51970586818
0.518746742492
0.515101678181
0.50988170958
0.504044660338
0.498261945271
0.492935562208
0.48826603612
0.484306289614
0.480990638257
0.478131156766
0.474972521126
0.471579061713
0.467426971877
0.458532341043
0.439884433864
0.412176796699
0.424395309711
0.42222344342
0.41455891578
0.404638047782
0.393863352769
0.382978952123
0.372413024531
0.362413454903
0.353112807847
0.344563049412
0.336754368895
0.329661523169
0.32337295113
0.317925168414
0.313135015383
0.308883029647
0.305428733172
0.381902407455
0.385993483778
0.386373510756
0.383981948301
0.37983497664
0.374651663532
0.368911592795
0.362937792242
0.356952045432
0.351111295941
0.34553798786
0.340347283653
0.335603744803
0.331403900784
0.327914349808
0.325439990858
0.32454032748
0.325880578444
0.375246678104
0.375548475111
0.375006274173
0.373548448941
0.371336248632
0.368568645942
0.365431475932
0.362082063995
0.358650386467
0.355249660619
0.35197982528
0.348927380366
0.346202408594
0.343958206378
0.34243134278
0.341991567337
0.343103759192
0.345719905992
0.373465943183
0.372231716958
0.370964079154
0.369476970151
0.367742849592
0.365796978853
0.363698083183
0.361513067618
0.359311426047
0.357162693522
0.355139133142
0.353326438592
0.351837097805
0.35082917142
0.350528260443
0.35123464066
0.353209514192
0.356062496137
0.372978170549
0.371127681169
0.369430513583
0.367781774118
0.366133642496
0.364472470269
0.362805982301
0.361157945592
0.359563747283
0.358067462129
0.356725350772
0.355611347226
0.354825373974
0.354502914078
0.354819771904
0.355973062122
0.358059015345
0.360609356515
0.372862077454
0.370814400632
0.368935598285
0.36717554432
0.365502922601
0.363901525485
0.362367765627
0.360911478367
0.359553693107
0.358326835829
0.357276511482
0.356465115419
0.35597628577
0.355917964217
0.356417979323
0.357597648854
0.359470912809
0.361608929777
0.372823988838
0.370699223602
0.368733810049
0.366904817574
0.365196163155
0.363598046268
0.362107202553
0.360728664819
0.359477145002
0.358377751349
0.35746748139
0.356797409804
0.356434461486
0.356460539048
0.356964152456
0.358014391409
0.359583918739
0.361302100912
0.372808921499
0.370650350914
0.368639784852
0.366766594471
0.36502395416
0.363408688752
0.361920533499
0.360564368266
0.359352059569
0.358303582473
0.357448173039
0.356825349303
0.356484778375
0.356483168723
0.356875024518
0.357691151304
0.358884884402
0.360158139812
0.372802652859
0.370628931645
0.36859527623
0.366695676554
0.364926956013
0.363288946927
0.361783668756
0.360416560241
0.359197897952
0.358143688656
0.357276262829
0.356624356281
0.356221873698
0.356104148556
0.35630003506
0.356816724206
0.357604986652
0.358440238188
0.372800071897
0.370618322042
0.368571161365
0.366654312838
0.364865362665
0.363204566259
0.361674262447
0.360279370066
0.359028191381
0.357932858022
0.357009369762
0.356277049977
0.355756924476
0.355468409429
0.355423685528
0.355618299519
0.356010083123
0.356438432037
0.372799639119
0.370612818773
0.368556044245
0.366625741252
0.364819379761
0.363136525493
0.361578589288
0.360148964357
0.358853377393
0.357699977258
0.356699046051
0.35586221156
0.355200956446
0.354724197455
0.35443483258
0.354324520666
0.35436147785
0.354435424505
0.372800840911
0.370610652547
0.3685463125
0.366604387943
0.364782015222
0.363077819415
0.361491888272
0.360025774293
0.358682568736
0.357466803086
0.356384051318
0.355440203009
0.354640336004
0.353987198035
0.353479314648
0.353108319406
0.352852181183
0.352637526841
0.372803283481
0.37061100181
0.368540713143
0.366588725006
0.364751732516
0.363027463428
0.361414743712
0.359913452786
0.358524467998
0.357249486768
0.356090665785
0.355050064521
0.354128912568
0.35332674153
0.352640449131
0.352062982617
0.351579899216
0.351143737449
0.372806416588
0.370613009387
0.368538227744
0.366577876178
0.364728130859
0.362985942375
0.361349096836
0.359816162457
0.358386380412
0.357059482935
0.355835404945
0.354713905606
0.35369412362
0.352774113904
0.35195040613
0.351217381788
0.350565937308
0.349966464195
0.372809475064
0.370615530886
0.368537464798
0.366570485378
0.364710243117
0.362953053564
0.361295931516
0.359736521116
0.358272981978
0.356903819387
0.355627670142
0.354443043115
0.35334805591
0.352340178561
0.351416028445
0.350571092603
0.349799760661
0.349084585084
0.372811510593
0.370617152944
0.368536672445
0.366564759104
0.364696639785
0.362928194915
0.361255948588
0.359676983979
0.358188834847
0.356789330777
0.355476430649
0.354248030881
0.35310179708
0.352035002514
0.351044427185
0.350126250112
0.349276917865
0.34848662993
0.372812212317
0.370617304705
0.368534945058
0.366559463414
0.364685846088
0.362909757007
0.361227466701
0.359635771076
0.358131875668
0.356713266402
0.355377548924
0.354122314208
0.352944997173
0.351842783404
0.350812534514
0.349850791379
0.348955106201
0.348120149027
0.372812074519
0.370616526136
0.368532579967
0.366554363906
0.364676818174
0.362895559547
0.361206759532
0.359607072393
0.358093537224
0.356663434011
0.355314160009
0.354043099117
0.352847534959
0.351724558035
0.3506710434
0.34968367423
0.348760587545
0.347899073114
0.372811647046
0.370615539753
0.368530301015
0.366550068673
0.36466997815
0.362885726749
0.361193454465
0.359589723952
0.358071419009
0.356635612722
0.355279451304
0.354000070669
0.352794518798
0.351659702674
0.35059236836
0.34958916976
0.348648480871
0.347769247918
0.372811452295
0.370615618964
0.368530635081
0.366551093629
0.364672540633
0.362890641898
0.361201222634
0.359600381095
0.358084418568
0.356649758719
0.355292908684
0.354010421678
0.352798853607
0.351654733283
0.350574549314
0.349554834014
0.348594081672
0.347692472313
0.372813152478
0.370623059378
0.368548091719
0.366583460968
0.36472395719
0.362963271911
0.36129490747
0.359712689632
0.358210874606
0.356784205517
0.355427931784
0.354137767417
0.352909807472
0.351740440608
0.35062629431
0.349564242622
0.348553399711
0.347595999288
0.372827354046
0.370675674806
0.368659950505
0.366768212987
0.364984628135
0.363292423208
0.361677145013
0.360127511452
0.358635106117
0.357193883365
0.355799640592
0.354449485022
0.3531413928
0.351873879175
0.350645788273
0.349456202453
0.34830645382
0.347202553267
0.372923343267
0.370973385996
0.369205720011
0.367553724027
0.365962491274
0.364394897007
0.362830828211
0.361262077627
0.359687555451
0.358110088766
0.35653437741
0.35496573101
0.353409353573
0.351869991904
0.350351807878
0.348858384667
0.347394838669
0.345973397154
0.373481023878
0.372382879489
0.371376642477
0.370242190891
0.368897628803
0.367337431446
0.365591448827
0.363699363703
0.361699155997
0.359623573932
0.357499661605
0.35534928
0.353189926696
0.351035561544
0.348897353754
0.346784313077
0.344705703367
0.342679498567
0.376467136005
0.378249050633
0.378881206551
0.378246444017
0.376640508809
0.374365377339
0.371642637235
0.368625403079
0.365419259996
0.362098399299
0.358716374914
0.355312836178
0.351917739474
0.348554049014
0.345239510931
0.341987897348
0.338811193609
0.335731804906
0.392539427175
0.401177771672
0.401937117429
0.399257273672
0.395033911395
0.390063058906
0.384721983059
0.379207730363
0.373635954468
0.368083658394
0.362606914621
0.357248241917
0.352040034891
0.347006431374
0.342164497049
0.337524935343
0.333092640181
0.328879108607
0.438446104098
0.450013527476
0.451113295111
0.449965849372
0.44831428642
0.446448890401
0.444451707545
0.442365837339
0.440223770096
0.438058645082
0.435904621205
0.43379350115
0.431752056334
0.429800646263
0.427952354721
0.42621101595
0.424562406369
0.422957273072
0.544762411901
0.705317146048
0.836237702869
0.945665884619
1.04098914433
1.12184433327
1.18872576976
1.24271764507
1.28522395169
1.31775550429
1.34179255978
1.35870710982
1.36972533721
1.37591575456
1.37819306609
1.37733029015
1.37398373711
1.36862132904
0.134277867543
0.120170458412
0.107724810461
0.106593097263
0.109791443668
0.114742939451
0.120254158425
0.125770473469
0.130991356287
0.135771009866
0.140065981197
0.143887862163
0.147272880069
0.150266306471
0.15291457069
0.155261115291
0.157344520229
0.159197784827
0.160848149763
0.162316957159
0.163619372287
0.164763629248
0.165749491647
0.166565218238
0.167181360731
0.16754035981
0.167527066372
0.167353856871
0.166123243544
0.147652075583
0.134810187621
0.130801881538
0.130707943945
0.148604829755
0.166579754896
0.181119291458
0.193736340499
0.205292458468
0.215578202412
0.22441982843
0.231856686908
0.238010773451
0.243019909331
0.247022899412
0.250151908972
0.25252641037
0.25425114937
0.25541669688
0.256100902283
0.256370498253
0.25628281365
0.255887383788
0.255227564097
0.254342202165
0.253267904564
0.252042770032
0.250714016593
0.249353652085
0.248148708192
0.24721422998
0.248312211088
0.159438189299
0.145141604972
0.135793132138
0.135462813242
0.137503836112
0.155724740949
0.176772756034
0.198683302266
0.220364921106
0.23857106002
0.251470196073
0.261303805745
0.269863493105
0.277476145559
0.284098032956
0.289726191986
0.294392552953
0.298142746473
0.301036853278
0.303145996063
0.304545552757
0.305310210286
0.305511335539
0.305215623953
0.304484629286
0.303374945635
0.301938947719
0.300226023471
0.298284598014
0.29616560809
0.29392914527
0.291658399033
0.289489719089
0.287712208981
0.28666395258
0.288027315749
0.168742006076
0.154857811024
0.145106905483
0.143352682835
0.141079145855
0.152469481062
0.166608755655
0.184995957791
0.205848437442
0.226365111565
0.245532194825
0.263555022678
0.280340321757
0.294892928047
0.305632361731
0.313494496957
0.319829345904
0.325132972296
0.329531826316
0.333104250968
0.335908299969
0.337983885882
0.33936840582
0.340104147765
0.340238208205
0.339820767109
0.338903529265
0.337538370956
0.335776447717
0.333667840093
0.331261866407
0.328608108292
0.325758592561
0.322771917495
0.319721258882
0.316710535264
0.313906020739
0.311615759412
0.310192325994
0.310773873249
0.177036661256
0.163571133371
0.15362527576
0.151110418638
0.14678880644
0.155546311162
0.16755485627
0.184004394779
0.202753902037
0.220816549507
0.237268220568
0.253701565805
0.270127659046
0.285775544528
0.300716254143
0.314808483936
0.327788557336
0.33908681037
0.347668847994
0.353844307766
0.358462896716
0.361983250276
0.364597677048
0.366432124491
0.367576806713
0.368091242955
0.368019842846
0.367402449032
0.366278204737
0.364686978981
0.362669823477
0.360268910412
0.357527296949
0.354488939947
0.351199122911
0.347705619385
0.344060987739
0.340326942809
0.336582429144
0.332939023947
0.329567681186
0.32675143146
0.324803655913
0.324385097927
0.184165947658
0.17125889981
0.161318413502
0.158296723799
0.152355400303
0.158919543056
0.169170809115
0.184235908504
0.202097355439
0.219741757184
0.235952505636
0.252007751975
0.267731200193
0.282254201272
0.295845696414
0.309097028063
0.32189442668
0.33396441448
0.345456752345
0.356257523963
0.36609039427
0.374549245255
0.381006461324
0.385533541146
0.388628489505
0.390646678212
0.391780716778
0.392166999906
0.391909120915
0.391080818407
0.389736758885
0.387921698311
0.385675255501
0.383034671099
0.380036514452
0.376717666593
0.373115879563
0.369270335921
0.365222426138
0.361017116232
0.356705304582
0.352348012325
0.348023629943
0.3438407275
0.339957235421
0.336612642376
0.334051835141
0.332641623186
0.198999956547
0.185934001564
0.175095013252
0.166364557468
0.163823666934
0.157412994192
0.162558090262
0.171389686891
0.185124360455
0.201969498055
0.219016626535
0.234936988705
0.250896686679
0.26673957099
0.281542196287
0.295385503318
0.308707150518
0.321313988622
0.332916161216
0.343814320569
0.354294522957
0.364241658646
0.373516965385
0.38221157524
0.390265621676
0.397466223574
0.403516467497
0.408035230813
0.411013971333
0.412738022197
0.413463333359
0.413357247381
0.412547205063
0.411135548434
0.409200466962
0.406802283912
0.403989994958
0.400805422789
0.39728600008
0.393466855729
0.389382254876
0.385066683497
0.380555787969
0.375887476741
0.371103403984
0.366251287672
0.361388606345
0.356588556553
0.351949593403
0.347607032986
0.343751650318
0.34053438558
0.338226341583
0.218538580517
0.204619775671
0.192991281601
0.183825224222
0.179464349217
0.16916086887
0.168520459008
0.170301272821
0.176341414589
0.188236122968
0.20379691911
0.219862399468
0.235056509909
0.250485276257
0.266037265993
0.280801728168
0.294759377514
0.30831791083
0.321302499959
0.333390784668
0.344755744644
0.355577853759
0.365693365509
0.374969980989
0.383601917311
0.391763837768
0.399394355216
0.406411570283
0.412852383302
0.418676813743
0.423732219478
0.427806553577
0.430665022081
0.432279912194
0.432816367798
0.43245433944
0.431330727114
0.429556943165
0.427226687792
0.424415690076
0.421184902171
0.417584721097
0.413658086556
0.40944279402
0.404973412952
0.400282786189
0.395403277085
0.390367891374
0.385211507385
0.37997237655
0.374694238275
0.36942940024
0.364243262881
0.359220826506
0.354472472077
0.35014388759
0.346320449923
0.343215839377
0.243255026833
0.228031439316
0.215909686538
0.206460170969
0.201116442601
0.188341008269
0.184980426469
0.184094340296
0.187383802975
0.196341362573
0.208596981622
0.220840845966
0.231765512857
0.242947845041
0.255649699321
0.269372272608
0.282887725224
0.295999767466
0.309004943952
0.321711740584
0.333787430119
0.345325696246
0.356472992503
0.367061118523
0.376921456224
0.386156417759
0.394859884696
0.40293372505
0.410306697234
0.417085942492
0.423377073723
0.429153912484
0.434365130118
0.439016292347
0.443073120964
0.446427760033
0.448932123542
0.450439197447
0.450922890708
0.450482173573
0.449243928481
0.447317570714
0.444797629275
0.44176667943
0.43829442595
0.434439026908
0.43024966734
0.425768689248
0.42103337936
0.416077521341
0.410932764699
0.405629796619
0.400199485878
0.394674061943
0.389088532014
0.383482469962
0.377902460234
0.372405275092
0.367061929943
0.361959487505
0.357205456816
0.352843848678
0.349041196509
0.272904020998
0.256042137732
0.243964638689
0.234283102205
0.22844861363
0.213766457798
0.20865507735
0.206022857639
0.207631046291
0.21503594815
0.225772763208
0.236384627079
0.245476419302
0.254633093302
0.265094573407
0.276289002961
0.286899230684
0.29685267226
0.30681906656
0.317257310037
0.327948133585
0.338489544829
0.348897653517
0.359253292003
0.369372094656
0.379067726781
0.388384855054
0.397375857327
0.405920424213
0.413906164566
0.421366869708
0.428341715226
0.434770731487
0.440608412139
0.445905584465
0.450721076559
0.45504335519
0.45883891469
0.46209754172
0.46478750458
0.466831792522
0.468128002944
0.468582900049
0.468177353569
0.466973991111
0.465063970202
0.462534394425
0.459464573713
0.455926034206
0.451981204553
0.447683712286
0.443079846663
0.438209994684
0.43310996172
0.427812196823
0.422346940959
0.41674326398
0.411030099966
0.405237309817
0.399396907878
0.393544509792
0.387721146386
0.381975334448
0.376365274431
0.370958196339
0.365831344663
0.361003051303
0.356592875267
0.306578310218
0.28915339815
0.276877508374
0.266984466536
0.261061590737
0.244960994909
0.238896981672
0.235238708353
0.235955079439
0.242775171153
0.253065306156
0.263082299153
0.271252942208
0.279279370725
0.288486901169
0.298303130246
0.307360946564
0.315502010339
0.32340509879
0.331534556578
0.339672309556
0.347428988609
0.354954197928
0.362584470579
0.370472958561
0.3784827003
0.38645431042
0.394419955734
0.402408117807
0.410293836218
0.417953074023
0.42537938553
0.432572508356
0.43944151026
0.445896463936
0.451925436935
0.457529524476
0.462664471879
0.467293661762
0.471433817528
0.475111967609
0.478320113318
0.481033112876
0.483234180473
0.484894397784
0.485957592935
0.486353218019
0.486021547455
0.484950528261
0.483182457285
0.480784604822
0.477826707597
0.474375191709
0.470491628392
0.466231184974
0.461642380218
0.456767817958
0.451645159288
0.446308072099
0.440787214577
0.435111156491
0.429307287406
0.42340268813
0.417425063038
0.41140372718
0.405370742627
0.399362161282
0.393419255092
0.387589393478
0.381924067287
0.37647817243
0.371254857109
0.366346810803
0.356388277248
0.338327615808
0.324994375192
0.313087189161
0.303166761583
0.297598908326
0.280839439933
0.274774334777
0.270860274346
0.271464955973
0.278601771131
0.289421164391
0.299772027048
0.307840612624
0.315511829122
0.324258647857
0.333505404582
0.341795184273
0.348859494243
0.355421703738
0.361991478422
0.368374217329
0.374187722593
0.37954774082
0.384793704549
0.390094160903
0.395342819578
0.400431904049
0.405504139689
0.410762337402
0.416276062849
0.421967772991
0.427760425565
0.433668030043
0.439694283601
0.445754436505
0.451752580025
0.457648682752
0.46340866055
0.468953339816
0.474201027662
0.47911205225
0.48366115688
0.487806410477
0.49151226066
0.494774015575
0.497597635411
0.499973071969
0.501879391154
0.50329761575
0.504201945277
0.504551049726
0.504296267042
0.503399129812
0.501853275335
0.499689248348
0.496958171027
0.493716416979
0.490019772509
0.485921181922
0.481469125092
0.476707062594
0.471673731852
0.46640377324
0.460928433001
0.455276338194
0.449474256444
0.443547861514
0.437522472635
0.431423829678
0.425278877598
0.419116603845
0.4129688383
0.406870845553
0.400861353218
0.394979973798
0.389265891246
0.383714086438
0.378402744553
0.415193049868
0.396739912987
0.382342051099
0.369338052451
0.358659435119
0.352799283846
0.333540671773
0.325080524312
0.317047846392
0.311526653447
0.312241370072
0.320743321624
0.333336265186
0.345083886026
0.353921244748
0.362030545555
0.371101356565
0.380556004539
0.388814708313
0.395500331167
0.401403075625
0.407101329679
0.412419795457
0.416965507899
0.420806787301
0.424289721236
0.427603887179
0.430667375349
0.433387035161
0.435899013876
0.438411834007
0.44101752691
0.443681215604
0.446389371873
0.449250749465
0.452397195707
0.45587321787
0.459638148014
0.463645902762
0.467890278058
0.472356328051
0.476977449116
0.481670409519
0.486374499106
0.491032952524
0.495566972997
0.499895848298
0.503962186475
0.507722770256
0.511131933808
0.514151517392
0.516763237536
0.518959326063
0.520726328887
0.522045196845
0.522897178058
0.523259953505
0.523102873066
0.522392434423
0.521104011637
0.519235364581
0.516809952502
0.513867726497
0.510454743691
0.506618045131
0.502403201062
0.497852730235
0.493005371381
0.487896125993
0.482556621088
0.477015650346
0.471299768769
0.465433944363
0.45944218267
0.453348171774
0.447175897103
0.440950272108
0.434697708024
0.428446595002
0.422227426219
0.416072328734
0.410012307639
0.40407593759
0.398254503154
0.392618378893
0.501028497008
0.481335654247
0.464721630617
0.449172658294
0.434736859376
0.423288063911
0.417805996279
0.397294090356
0.388790660896
0.379901651726
0.373383009158
0.373663314651
0.382498985335
0.39545747389
0.406571163299
0.413228326018
0.417950201824
0.423685123464
0.431700833415
0.44078115232
0.448830095295
0.455225063977
0.460737341538
0.4659652402
0.470704713316
0.474514089928
0.477400139144
0.479707855284
0.481644730081
0.483139379904
0.484096478388
0.484629627696
0.484941298847
0.48513274483
0.485187523511
0.485108217563
0.485010435949
0.485039798058
0.485270261035
0.485709408217
0.4863780727
0.487354813092
0.488728339025
0.490531812937
0.492744132523
0.49533163402
0.498272226993
0.501535467926
0.505057817153
0.508759079383
0.512564456453
0.516400975522
0.520185172038
0.523833380971
0.527276683867
0.530459332767
0.533330524883
0.535848407485
0.53798619468
0.539727198953
0.541055123077
0.541951957004
0.542400318433
0.54238143278
0.541872645851
0.540851027028
0.539301173537
0.537223684441
0.534637512238
0.531574638456
0.528073069629
0.524172613976
0.519912548613
0.515330122229
0.510459778993
0.505333026698
0.499978636508
0.494423038953
0.488690800695
0.482805165986
0.476788587425
0.470663269015
0.464451669204
0.458176984862
0.451863531819
0.445536974082
0.439224153014
0.432952329275
0.426746511203
0.420628413687
0.414588369272
0.408692579621
0.607839542265
0.5869009173
0.567473204615
0.548927505006
0.531962383428
0.519242238988
0.514056236008
0.490882874843
0.480709159104
0.467989041008
0.455314282007
0.447249491525
0.44804987931
0.459030280484
0.474611021601
0.487668454654
0.495090282718
0.499866855562
0.50544826859
0.513269693331
0.521874268497
0.528750751328
0.533128223375
0.536087783404
0.5389504441
0.542259279664
0.545554533556
0.548149016642
0.549887393807
0.551041349783
0.551782168812
0.552005985589
0.551581960042
0.550582163726
0.549187810362
0.547495878367
0.545490049072
0.543168440093
0.540633090099
0.538021354454
0.535411603403
0.532824963105
0.530297763066
0.527923179777
0.525810304431
0.524027667639
0.522606033982
0.521579454885
0.521006203014
0.520946239389
0.521422964887
0.522422234326
0.523912937596
0.525860663574
0.528220660948
0.53092513254
0.53389088834
0.537032798855
0.540265555062
0.543499633356
0.546647240218
0.549631873157
0.552389329169
0.554864333716
0.557011809072
0.558799902165
0.560206584995
0.561213700667
0.561804261956
0.561962770351
0.561673892191
0.560921021052
0.559688725449
0.557967827693
0.555760828143
0.553083585869
0.549962197474
0.546428271532
0.542515569002
0.538257950512
0.533687995022
0.528836254228
0.523731002264
0.518398341742
0.512862469857
0.507146080812
0.501270797162
0.495257642596
0.48912748031
0.482901445816
0.476601294883
0.470249662999
0.463870097225
0.457486722966
0.451123330489
0.44480092421
0.438537038499
0.432322659864
0.426221852826
0.736275997755
0.7143819112
0.691624325013
0.669418577727
0.649587903845
0.636220261032
0.633141816159
0.609078101559
0.600029857612
0.586025413041
0.571113062692
0.561218566201
0.56159639482
0.573755800804
0.59083105807
0.604068828124
0.609468155684
0.610180241468
0.610486611964
0.613551180565
0.620218565164
0.628310675584
0.63468518029
0.638240591198
0.640106505209
0.641743856782
0.643722417205
0.645475515486
0.646163062384
0.645608326492
0.644289396471
0.642738922876
0.641152703532
0.639344679446
0.637071991895
0.634305404198
0.631161626453
0.627692969698
0.623851373129
0.619604329658
0.615022055304
0.610217226912
0.605255994401
0.600153135306
0.594937515429
0.589692201968
0.584518724112
0.579488295351
0.574642949355
0.570032641675
0.565735329678
0.561837585489
0.558403222153
0.555473029281
0.553084280659
0.551280797095
0.550101876471
0.549560411126
0.549640818378
0.550308603868
0.551518632404
0.553213339321
0.555317343216
0.55774174805
0.560393229922
0.563177307462
0.565998991867
0.568766861828
0.571399794361
0.573828620152
0.575995146707
0.577852463926
0.579366106667
0.580511455469
0.58126967762
0.581624989646
0.581564080041
0.581074683353
0.58014490708
0.578764668965
0.576929005044
0.574641614909
0.571916029685
0.568773820242
0.565241378647
0.561347335683
0.557120813397
0.552590215925
0.547782525246
0.542723011339
0.537435255463
0.531941340305
0.52626217037
0.520417835189
0.514428011094
0.508312335209
0.502090761287
0.495783823332
0.489412789507
0.482999579453
0.476566326423
0.470134428919
0.463722343665
0.457345299522
0.450995791369
0.444736976796
0.910549335052
0.887049875156
0.859609173593
0.831733311942
0.805423074129
0.783206897707
0.771265716479
0.773960833134
0.75253653427
0.748305943104
0.735105943696
0.719264867282
0.708734494281
0.710157300661
0.725314195304
0.745854388529
0.76136837399
0.767064252499
0.766698473465
0.765465781278
0.767134557049
0.772670292429
0.779510284079
0.783869090021
0.784290633464
0.78202476644
0.779099880679
0.777043956456
0.776184264134
0.775611162981
0.774175587032
0.77150611633
0.768031455503
0.76428837575
0.760454950634
0.756296502316
0.751519089222
0.746106157843
0.740291482494
0.734298493448
0.728192805187
0.721895591179
0.715320335622
0.708476748746
0.70142760439
0.694200671637
0.686780928983
0.679169703072
0.671423193479
0.663618661376
0.655812002817
0.64803504126
0.64032848692
0.632761827339
0.625415724828
0.618356929675
0.611637258872
0.605311413321
0.599447068075
0.594115669918
0.589374923435
0.585266945471
0.581826433039
0.579085216509
0.577066173823
0.575770871558
0.575177126186
0.575243578748
0.575914872518
0.577122024505
0.578781344823
0.580797671883
0.583071226497
0.585501437056
0.587989529694
0.590442131826
0.592776170282
0.594920606392
0.596816485557
0.598416737833
0.59968638397
0.600600285355
0.601140027497
0.601291424136
0.601043341059
0.600386373524
0.599312192942
0.597814541363
0.595891263226
0.593546692861
0.590792452127
0.587646455065
0.584130715101
0.580269412596
0.576087443828
0.571609407909
0.566858954588
0.561858504875
0.556629206676
0.551191086444
0.545563287667
0.539764395525
0.533812761605
0.527726843339
0.52152548049
0.515228115254
0.50885485411
0.502426335011
0.495963222729
0.489485306559
0.483009516232
0.47655003773
0.470101205197
0.463726151722
1.11569448167
1.09333956654
1.06337366107
1.03141874314
1.00036375397
0.971864740164
0.94962331592
0.942671406375
0.956068390236
0.942001864442
0.948719796415
0.939210185994
0.921705363293
0.904852589114
0.895617301149
0.9003443288
0.920539701765
0.946340115883
0.965809550115
0.973156991815
0.972569009296
0.970138007834
0.970329898076
0.974495717
0.980067932109
0.982918947636
0.981275112988
0.976355195276
0.970401159742
0.965142750791
0.961002889078
0.957034186572
0.951928048729
0.945187198575
0.937273819502
0.929001754763
0.921005632679
0.913413199431
0.905875956133
0.897970624016
0.889569234274
0.880829145103
0.871933004841
0.862918076565
0.853682099587
0.844127512218
0.834280256575
0.824261087999
0.814170404294
0.804030759623
0.793809182707
0.783478443015
0.773058463592
0.762590473821
0.752098512894
0.741587576483
0.731073587545
0.72060269665
0.710233450207
0.700016286171
0.689990966145
0.68020252788
0.670711664072
0.661586209257
0.652888165345
0.644671734858
0.636991382753
0.62990670823
0.623477424673
0.61775360519
0.61277295773
0.608563664343
0.605145872756
0.602527875785
0.600699048317
0.599627803583
0.599263872484
0.599541940784
0.600383157278
0.601696207426
0.603380619531
0.605332314986
0.607447602086
0.609626527772
0.611776108848
0.613814114622
0.615670557943
0.617288017775
0.61862120378
0.619636500024
0.620309878211
0.620624412774
0.620567825493
0.620131188977
0.619307532318
0.618091333381
0.616478996672
0.614470169331
0.612069333221
0.60928641163
0.606136200016
0.602636912774
0.598808749415
0.594672744417
0.590249925742
0.58556075525
0.580624860387
0.575460971225
0.570087027163
0.564520372348
0.558778028166
0.552876974731
0.546834441709
0.540668142372
0.534396444862
0.528038391172
0.521613526187
0.515141388746
0.508640671482
0.502127455807
0.495615683205
0.489101493321
0.482648700637
1.3171880177
1.28249658718
1.24375680528
1.20497510267
1.16953123667
1.14306971
1.13906543195
1.16453961424
1.15513330489
1.1864588004
1.1893696362
1.17564040562
1.1575111453
1.14276019587
1.13836604732
1.15117497429
1.18208292686
1.21766957258
1.24269201128
1.24965876964
1.24386813953
1.23309776827
1.2234767997
1.21902198932
1.22033800027
1.22377475217
1.22420580146
1.21939045215
1.21076448085
1.20103671475
1.19223993457
1.18481900727
1.177641018
1.16915810283
1.15877157603
1.146994844
1.13479286933
1.12289499933
1.11141600008
1.09991653637
1.0878758792
1.07514762251
1.06198372732
1.04875820799
1.03573138561
1.02292048826
1.0101521136
0.997248798796
0.98417660342
0.971017037784
0.957841436336
0.944644365427
0.93136883702
0.91797818473
0.904504122854
0.891020722713
0.877583380673
0.86420317354
0.850865206319
0.837562591497
0.824316066695
0.811158511539
0.798115356723
0.785203024822
0.772444643876
0.759881036432
0.747561325507
0.735532525877
0.723836974102
0.712520276864
0.701637094847
0.691246678545
0.681405784431
0.672166563065
0.663579948779
0.655697802372
0.648569681556
0.642236747954
0.636729065683
0.632065899066
0.628255778113
0.625293836369
0.623157542434
0.621805296109
0.621177937643
0.621201651314
0.621790129187
0.62284677129
0.624268096118
0.625948630816
0.627784799788
0.629678360354
0.631539324234
0.633288868886
0.634860505515
0.636200371975
0.63726650626
0.63802806946
0.638463345475
0.638557512986
0.638300467012
0.637685347473
0.636707290228
0.63536283345
0.633650205221
0.631570148758
0.629127004956
0.626329199461
0.623188919215
0.619721154339
0.615942635987
0.61187095659
0.607523875639
0.602918869482
0.598072878467
0.593002257657
0.587722841489
0.582250124149
0.576599476471
0.57078640968
0.564826812285
0.558737170925
0.552534693192
0.546237323881
0.53986354746
0.533431923556
0.526960317128
0.520464337664
0.513958135683
0.507439428703
0.500973412044
1.44938303551
1.4240913688
1.39282200956
1.36099384912
1.33675267928
1.33511345475
1.36551174668
1.34766195698
1.36860405345
1.36641839141
1.35345964093
1.3432178302
1.34703137647
1.37496843586
1.42761047979
1.48544705479
1.52819599992
1.54451735621
1.54092299881
1.52753378461
1.5120590843
1.50029665436
1.49601987663
1.49913145468
1.50455363761
1.50561368753
1.49911137426
1.48646844792
1.47100238429
1.45581447893
1.44284295917
1.43218572618
1.42223057621
1.41099632133
1.39764585106
1.38267495224
1.36718302424
1.35201853067
1.33731997164
1.32259109829
1.30723243939
1.29106504697
1.27434591937
1.2575002519
1.24082574621
1.22433657185
1.20782640195
1.19109122753
1.17411194884
1.15703998824
1.14005657513
1.12326635206
1.10665418702