/*--------------------------------*- C++ -*----------------------------------*\
| =========                 |                                                 |
| \\      /  F ield         | OpenFOAM: The Open Source CFD Toolbox           |
|  \\    /   O peration     | Version:  2.3.1                                 |
|   \\  /    A nd           | Web:      www.OpenFOAM.org                      |
|    \\/     M anipulation  |                                                 |
\*---------------------------------------------------------------------------*/
FoamFile
{
    version     2.0;
    format      ascii;
    class       volScalarField;
    location    "100";
    object      nut;
}
// * * * * * * * * * * * * * * * * * * * * * * * * * * * * * * * * * * * * * //

dimensions      [0 2 -1 0 0 0 0];

internalField   nonuniform List<scalar> 
10011
(
3.09415971557e-05
3.71954560558e-05
4.09539374208e-05
4.31628837734e-05
4.44171161341e-05
4.50816605335e-05
4.53834067057e-05
4.54648366553e-05
4.54155568616e-05
4.52916981045e-05
4.51280749073e-05
4.49456926702e-05
4.47561194782e-05
4.45630700079e-05
4.43346168678e-05
4.40110258507e-05
4.34664853369e-05
4.03341453809e-05
0.000116752495464
6.95256580031e-05
5.1772650758e-05
4.25830792601e-05
3.73196489122e-05
3.40829927888e-05
3.19860805899e-05
3.05813151947e-05
2.96243172317e-05
2.89719634715e-05
2.85353725348e-05
2.82566049611e-05
2.8097047618e-05
2.80412339602e-05
2.80239186959e-05
2.79423926013e-05
2.76992741417e-05
2.68282941622e-05
0.000365657789225
0.000224185476133
0.000163695149791
0.000129409018876
0.000107782901259
9.32470632454e-05
8.29872139192e-05
7.54757661803e-05
6.98340393983e-05
6.55311040106e-05
6.22382499099e-05
5.97576872178e-05
5.81027647217e-05
5.70402023946e-05
5.63962069824e-05
5.62939668739e-05
5.70734623943e-05
5.9341327017e-05
0.000645075295542
0.000480367220733
0.000380856046271
0.000316499654946
0.000272340259894
0.000240769563472
0.000217455767793
0.000199812370116
0.000186240911377
0.000175732017313
0.000167708495248
0.00016192304385
0.000157513496585
0.000154385909509
0.000152620383556
0.000152542771078
0.000154824443464
0.000160336966928
0.000789521851139
0.000697835838615
0.000614126635172
0.000545686687449
0.000491325515104
0.000448370880307
0.000414292426672
0.000387091818125
0.000365310445015
0.00034805295607
0.00033442857535
0.000323509014081
0.000314987319036
0.000308753442152
0.000304914350545
0.000303830501222
0.000306074177904
0.000311915744061
0.000836247614375
0.000802597772087
0.000760333171847
0.00071659877792
0.000675326344516
0.000638234353727
0.00060578337763
0.000577851742777
0.000554268915182
0.000534309845707
0.000517488942826
0.000503520633681
0.000492240587223
0.000483624418855
0.000477805122253
0.000475064728599
0.000475693311361
0.00047940801088
0.000848397447923
0.000838757986641
0.000823554411061
0.000804418306768
0.000783205362422
0.000761469526755
0.000740334213088
0.000720565291951
0.000702328282659
0.000685836574897
0.000671197511776
0.000658486803762
0.000647792220223
0.000639244582498
0.000633031157509
0.000629368161037
0.000628348535124
0.000629485663108
0.000850844672454
0.000847642867278
0.000841990495342
0.000833956699716
0.000824019976279
0.000812830269915
0.000801041497254
0.000789125248836
0.000777486548995
0.000766448093467
0.000756268428012
0.000747169000076
0.000739358779422
0.000733051385639
0.000728465520262
0.000725788397709
0.000725041920938
0.00072575030291
0.000851474230405
0.000850282869809
0.00084820611746
0.000845057678437
0.000840846357461
0.00083573372987
0.000829930140824
0.000823690381828
0.000817270018749
0.000810912921819
0.000804848239046
0.000799294212027
0.000794463904008
0.000790567255125
0.000787801042966
0.000786311413437
0.000786087505217
0.0007867158429
0.000851636343372
0.000851061938901
0.000850271015154
0.000849148996864
0.000847633316154
0.000845711604563
0.000843421407196
0.00084083911744
0.000838069268264
0.000835235590031
0.00083247505879
0.000829934400164
0.000827766895029
0.000826126062897
0.000825150933029
0.000824933254429
0.000825439637025
0.000826333340887
0.00085166798714
0.000851239844128
0.00085080501297
0.000850325090546
0.000849768613516
0.000849117642141
0.000848369917616
0.00084754085879
0.000846663879605
0.000845789151071
0.000844981751573
0.000844319261618
0.000843887809485
0.000843774876654
0.000844056272252
0.000844772142394
0.000845874166027
0.000847097112971
0.000851671482614
0.000851265631213
0.000850899202893
0.000850565107904
0.000850257262238
0.000849973148446
0.000849714558735
0.000849489334209
0.000849312990989
0.000849209441466
0.000849210834307
0.000849356357381
0.000849689389184
0.000850252161043
0.000851076946516
0.000852171099371
0.000853483692209
0.000854813112487
0.000851671639701
0.0008512640277
0.000850899706644
0.000850579987251
0.000850306823346
0.000850084322807
0.000849918740656
0.000849819009212
0.00084979750515
0.000849870388547
0.0008500573514
0.000850380578659
0.000850862640605
0.000851522968546
0.000852372678588
0.000853406217277
0.00085458123475
0.000855752229484
0.000851673006734
0.000851261439806
0.000850889148121
0.000850558928043
0.000850273970086
0.000850039040069
0.000849860504296
0.000849746425416
0.000849706749254
0.00084975325606
0.000849899081851
0.000850157764835
0.000850541686989
0.000851059923281
0.000851715420385
0.00085250064047
0.000853385733762
0.000854270941689
0.000851675871129
0.000851261543384
0.000850881756558
0.000850539125009
0.000850236456725
0.000849977588406
0.000849767501416
0.00084961230219
0.000849519187863
0.00084949623712
0.000849551943283
0.000849694460684
0.000849930587668
0.000850264526922
0.00085069647769
0.000851220416244
0.000851817483108
0.000852421803624
0.000851679632108
0.000851263827102
0.000850878360222
0.000850525211053
0.000850206490208
0.000849924982203
0.000849684247076
0.000849488582226
0.00084934290013
0.000849252505136
0.000849222711825
0.00084925833163
0.000849363052653
0.000849538777812
0.000849784952411
0.000850097493913
0.000850465522677
0.000850846889927
0.000851683347124
0.000851266886728
0.000850877373231
0.000850516020933
0.000850184226482
0.00084988388179
0.000849617447419
0.000849387883334
0.000849198522082
0.000849052853956
0.000848954251293
0.000848905615633
0.00084890901976
0.000848965343091
0.000849073968267
0.000849232317225
0.000849434803795
0.00084965547949
0.000851685827314
0.000851268898724
0.000850876481375
0.00085050913187
0.000850167676578
0.00084985339317
0.00084956802871
0.000849313708512
0.000849092818766
0.000848907809684
0.00084876098968
0.0008486542666
0.000848588929934
0.000848565424981
0.00084858322011
0.00084864065846
0.000848735290243
0.000848851293909
0.000851686677659
0.000851269085608
0.000850874387572
0.000850502683228
0.000850154472576
0.00084983071512
0.000849532760121
0.000849262267709
0.000849021069335
0.000848811020259
0.000848633788781
0.000848490697185
0.000848382529507
0.000848309426979
0.000848270788991
0.000848265349254
0.000848292272258
0.000848341589173
0.000851686496408
0.000851268086
0.00085087135205
0.000850496076921
0.000850142589637
0.000849811606934
0.000849504089386
0.000849221168688
0.00084896404828
0.00084873383305
0.000848531403976
0.000848357262194
0.000848211455007
0.000848093469724
0.000848002256466
0.00084793635407
0.000847895566479
0.000847873432652
0.000851685923563
0.000851266517602
0.000850867155578
0.00085048682358
0.000850124922071
0.00084978072024
0.00084945329277
0.000849141619234
0.000848844590778
0.000848560977617
0.000848289398697
0.00084802832767
0.000847776078154
0.000847530811538
0.0008472905745
0.000847053537663
0.000846820061086
0.000846587903218
0.00085168491712
0.000851261697749
0.000850850149806
0.000850442733939
0.000850030820029
0.000849604526673
0.000849153763416
0.000848669220249
0.000848142869245
0.000847568232122
0.00084694051702
0.000846256606461
0.000845514930014
0.000844715295436
0.00084385870121
0.000842947411588
0.000841987426132
0.000840990140761
0.000851676663035
0.000851213042607
0.000850691289465
0.000850063244772
0.000849282254645
0.000848308143786
0.000847111626378
0.000845675547706
0.000843993986505
0.000842070565852
0.00083991646679
0.000837548429443
0.000834986931679
0.000832254662193
0.000829375349048
0.000826373135604
0.000823275857595
0.000820132749668
0.000851582525028
0.000850738350653
0.000849360412549
0.00084727249608
0.000844375369094
0.000840645824608
0.000836122968849
0.000830886925057
0.000825039730157
0.000818691385815
0.00081195046889
0.000804918357745
0.000797686226008
0.00079033390009
0.0007829299028
0.00077553246218
0.000768195850007
0.000761015345193
0.000850709957104
0.000847077541016
0.000840669419327
0.000831526178337
0.000820044560036
0.000806779021677
0.000792296145222
0.000777092029876
0.00076156594424
0.000746022501603
0.000730684505233
0.000715708706817
0.00070120087426
0.000687228612539
0.000673831579781
0.000661029519179
0.000648833217172
0.000637310829445
0.000844081011414
0.000824964169639
0.000797770571316
0.000766192858059
0.000733079248648
0.00070031963907
0.000668997242731
0.000639636507992
0.000612426830681
0.000587370961684
0.000564373662939
0.000543293537263
0.000523972687346
0.000506253017511
0.00048998471916
0.00047503034693
0.000461269118226
0.000448647464688
0.000803307523396
0.000726487108815
0.000651208447409
0.000585240986838
0.000529299473281
0.0004823351964
0.000442866041562
0.000409495233431
0.000381064434701
0.000356650249921
0.000335523366431
0.000317107743423
0.000300946760196
0.000286676547168
0.000274005549354
0.000262699156091
0.000252568474521
0.000243485229318
0.00062569053142
0.000465078983858
0.000368514205738
0.000304036439776
0.000258159499735
0.000224212243681
0.000198282127158
0.000177948761383
0.000161659134198
0.00014837546262
0.000137379002006
0.000128157632413
0.000120337931244
0.000113642272158
0.000107860960594
0.000102834017833
9.84395708475e-05
9.45979552145e-05
0.000254159004959
0.000158190430287
0.000117778126794
9.43893380524e-05
7.93516504897e-05
6.91223009264e-05
6.18607693665e-05
5.65350958787e-05
5.25300806563e-05
4.9458196836e-05
4.70644456787e-05
4.51751974478e-05
4.36688620609e-05
4.24582416832e-05
4.14795215514e-05
4.06852458787e-05
4.00397746568e-05
3.95208269993e-05
3.69331939183e-05
4.20247831593e-05
4.57591595902e-05
4.86610856077e-05
5.10546911407e-05
5.3000296703e-05
5.45572025206e-05
5.57823135419e-05
5.67281333713e-05
5.7441404387e-05
5.79626972772e-05
5.83266181678e-05
5.85623211746e-05
5.86941471494e-05
5.87422933601e-05
5.87234481107e-05
5.86515579716e-05
5.85364338109e-05
2.09548973727e-05
4.65644869843e-05
3.37776507716e-05
3.66470617884e-05
3.70484334786e-05
3.78306181672e-05
3.86948822587e-05
3.95221852523e-05
4.02643179574e-05
4.09069152619e-05
4.14527109092e-05
4.19114610658e-05
4.22947049929e-05
4.2613541725e-05
4.2877813885e-05
4.30958792466e-05
4.32746545976e-05
4.34197510438e-05
4.35356237574e-05
4.36256807589e-05
4.36923394315e-05
4.37369946966e-05
4.37598666054e-05
4.37596383717e-05
4.37326599543e-05
4.36715870451e-05
4.35614100646e-05
4.34307978955e-05
4.31649894286e-05
2.12880634879e-05
3.73700888153e-05
4.88649418619e-05
6.47069326811e-05
9.99185048065e-05
0.000129438147516
0.000153733609349
0.000173667582321
0.000189846313379
0.000202499109518
0.000212061126834
0.0002190775618
0.000224058211848
0.000227428934095
0.000229530680885
0.000230629844257
0.000230931256114
0.000230591569848
0.000229730878935
0.000228441864959
0.000226796610713
0.000224851657036
0.000222651591315
0.000220231584258
0.000217619013922
0.000214834443006
0.000211891936106
0.000208798748806
0.000205552864948
0.000202132325764
0.000197225033775
0.000189087599226
2.11395119968e-05
3.52258845813e-05
4.13994659829e-05
5.14364852065e-05
6.8103915064e-05
0.00010256191166
0.000141764075413
0.000182844401526
0.000222275596412
0.000255575599904
0.000282376063989
0.000304902704914
0.000324445013683
0.000341217851305
0.000355298133351
0.000366863806906
0.00037614788233
0.000383400284149
0.00038887029637
0.000392792562173
0.000395377927658
0.000396810301459
0.000397247338598
0.000396822754353
0.0003956492131
0.0003938212003
0.000391417575815
0.000388503616585
0.000385132545897
0.000381346563509
0.000377177528195
0.000372647563367
0.000367767934361
0.000362502047977
0.000355485986554
0.000345254172305
2.17450619926e-05
3.63782323381e-05
4.26902538875e-05
5.242756677e-05
6.49257549665e-05
9.02929805323e-05
0.000118748027481
0.000153296844016
0.000192618002322
0.000232524568339
0.000271116987305
0.000307752585729
0.000341455132373
0.000370959716546
0.000395624720399
0.000416680119186
0.000435284172006
0.000451810519055
0.000466351026585
0.000478979091232
0.000489773575978
0.000498821949404
0.000506227653567
0.000512107971431
0.000516586846178
0.000519788340836
0.000521832069208
0.000522830176649
0.000522885676642
0.000522091711729
0.000520531496285
0.000518278569694
0.000515397356854
0.000511943998065
0.000507967867833
0.000503514415888
0.000498627001005
0.000493311247791
0.000486609856107
0.00047772573534
2.23361177404e-05
3.7515710984e-05
4.40595417661e-05
5.38674971066e-05
6.47611118986e-05
8.72065662859e-05
0.000112588420892
0.000143767745446
0.000178943971068
0.000214108893911
0.000248252947387
0.000283069084004
0.000318430980309
0.000353012888643
0.000386291086218
0.000417737862827
0.000446782876081
0.000472740319626
0.000495031450441
0.000514239364656
0.000531212106413
0.00054637487447
0.000559901773355
0.000571898896193
0.000582438722129
0.000591573063422
0.000599350473301
0.000605825400295
0.000611059754896
0.000615121739949
0.000618083754776
0.000620020089433
0.000621004793394
0.000621110059994
0.000620405095058
0.00061895555204
0.000616823536293
0.000614068500242
0.000610749452724
0.000606929446759
0.000602679302097
0.000598051955253
0.000592509067716
0.00058555415801
2.29354008514e-05
3.86681804439e-05
4.54611088385e-05
5.54133478432e-05
6.50858965981e-05
8.52507065886e-05
0.000108246478529
0.000137030158867
0.000170071088033
0.000203573217729
0.000236207176896
0.000269334673244
0.000302658078277
0.000334965699708
0.000366400856441
0.000397599821229
0.000428424214346
0.000458395807769
0.000487270637998
0.000514670687141
0.000540141667332
0.000563187765443
0.000583363326901
0.000600910736251
0.000616384320282
0.000630158750065
0.000642439516771
0.00065336568986
0.000663035394453
0.000671514610786
0.000678851758384
0.000685088748572
0.00069026652701
0.000694427817919
0.00069761820528
0.000699886166091
0.000701282464255
0.000701859448774
0.000701670403601
0.000700769277384
0.00069921092726
0.000697052380169
0.000694355511011
0.000691191972194
0.000687646704357
0.000683805550574
0.000679505135559
0.000674122902915
2.36390682896e-05
3.93173739516e-05
4.37347873329e-05
4.81304277771e-05
5.74944537677e-05
6.64632286162e-05
8.49010281272e-05
0.000105807902575
0.000132239502348
0.000162963466582
0.000194523618239
0.000225533820909
0.000257277579814
0.000289527807391
0.00032105314287
0.000351767133599
0.000382151128614
0.000412045316006
0.000441095233437
0.000469496937724
0.000497480772113
0.000524878140296
0.000551436658861
0.000576990422764
0.000601285652903
0.000623969650781
0.000644659533781
0.000663024719496
0.000679141558427
0.000693350091945
0.000705941306148
0.000717110020437
0.000727002714662
0.000735732272803
0.000743381415565
0.000750011589406
0.000755671483181
0.000760402630087
0.000764243122713
0.000767230161825
0.00076940153561
0.00077079642301
0.000771455767958
0.000771422573624
0.000770742288334
0.000769463662219
0.000767640385916
0.000765333970139
0.000762618115544
0.000759580371757
0.000756314692107
0.000752746112423
0.000748549097948
2.49231749027e-05
4.15509925641e-05
4.6274606387e-05
5.09417337738e-05
6.03681528879e-05
6.69545286365e-05
8.01512076609e-05
9.31322723259e-05
0.00010940737085
0.000132235157855
0.000159888214157
0.000188709127945
0.000217294404927
0.0002468514188
0.000277235708532
0.00030729304322
0.00033682605055
0.000366294859752
0.000395577925662
0.00042430031862
0.000452513833601
0.000480357361155
0.00050766564821
0.000534277550308
0.000560299054553
0.000585820208463
0.000610697273338
0.000634750107134
0.000657838128588
0.000679774255044
0.000700289877491
0.000719091178142
0.000735937153154
0.000750831984001
0.00076397838495
0.000775589577722
0.000785832408732
0.000794843751742
0.000802737059202
0.000809602351405
0.000815510511809
0.000820518710768
0.000824674631362
0.000828019717109
0.000830591820859
0.000832427144083
0.000833561691528
0.000834032329335
0.000833877745918
0.000833139413868
0.000831862917441
0.000830099834771
0.000827910462654
0.000825367205624
0.000822554192323
0.000819561422215
0.000816345923833
0.00081285826009
2.64415923795e-05
4.41905875438e-05
4.93905415473e-05
5.44896454225e-05
6.44325420371e-05
7.04169819474e-05
8.235706326e-05
9.36784729565e-05
0.000107654153969
0.000127278539923
0.000150577665787
0.000173812651442
0.00019574918197
0.000218363631553
0.000243300003612
0.000270045635751
0.000297111307779
0.000324134942286
0.000351463879416
0.000378992321669
0.00040637940162
0.000433607358195
0.000460804192414
0.000487821134518
0.000514471086033
0.000540766413597
0.000566729143555
0.000592213087531
0.000617096185817
0.000641398976015
0.000665134792436
0.000688184786711
0.000710402196503
0.00073166104294
0.000751810074884
0.000770645201629
0.000787944546319
0.000803533578367
0.000817390926241
0.00082963789161
0.000840428357682
0.000849899473017
0.000858172262169
0.000865352821305
0.000871530576962
0.000876779686712
0.000881162135483
0.00088473050844
0.000887530470236
0.000889602944623
0.000890986010729
0.000891716438041
0.000891831050706
0.000891367949802
0.000890367824428
0.000888875441592
0.000886941578413
0.000884625291377
0.000881996247294
0.000879132651793
0.000876115937097
0.000872923490023
0.000869717082329
2.81334283425e-05
4.71357294788e-05
5.29348097489e-05
5.85475151963e-05
6.92139612779e-05
7.53275337717e-05
8.7186565708e-05
9.80859225901e-05
0.000111309789444
0.000129859061937
0.000151782915248
0.000173362971959
0.000193223626392
0.000213228816217
0.000234890837171
0.000257578323331
0.000279742110127
0.000301263236468
0.000323024801081
0.00034574258055
0.000369315895509
0.000393319014804
0.000417677234677
0.000442467289505
0.000467556216156
0.000492776481962
0.000518105278685
0.000543546541122
0.000568951180231
0.000594164447886
0.000619133558459
0.000643809936497
0.000668055094701
0.000691749204679
0.000714850831209
0.000737323428783
0.0007590594795
0.000779933858005
0.00079983105653
0.000818623712373
0.000836155620011
0.000852261083027
0.000866815022912
0.000879791817336
0.000891267159067
0.000901353945377
0.00091016435748
0.000917803578821
0.000924367898184
0.000929942162194
0.00093459962516
0.000938403501767
0.000941408705809
0.000943663625876
0.000945211827475
0.00094609368482
0.000946347809422
0.000946012422698
0.000945126634089
0.000943731818435
0.000941873083917
0.000939601006954
0.000936973348201
0.000934056338669
0.000930921468045
0.000927640238298
0.000924200719353
0.00092079002939
2.99467832937e-05
5.0453071506e-05
5.68760358384e-05
6.30436058838e-05
7.45681815031e-05
8.13427507786e-05
9.39479645682e-05
0.000105235197733
0.000118658688262
0.00013736162106
0.000159384518929
0.000180878772162
0.000200237335763
0.000219358301695
0.000239779557055
0.000260868777145
0.00028105433931
0.000300075893461
0.000318765413958
0.000337791193155
0.000357035211779
0.000376104453788
0.000395153755776
0.000414616407503
0.000434799484602
0.000455688742594
0.000477176491484
0.00049927225357
0.000521994133948
0.000545230330807
0.000568855515524
0.000592806715908
0.000617018946473
0.000641339164516
0.000665606533756
0.000689712179906
0.00071355490364
0.000736991537631
0.000759890639408
0.000782169278052
0.000803756194077
0.000824548935002
0.00084443377597
0.000863305896034
0.00088105783033
0.00089756829207
0.000912715393734
0.000926410900463
0.000938634398856
0.000949437308324
0.000958905880347
0.00096713343498
0.000974211819171
0.000980227966102
0.000985261001958
0.000989381359793
0.000992651354778
0.000995126290817
0.000996855689094
0.000997884660311
0.000998255225316
0.000998007627422
0.000997181555266
0.000995817399044
0.000993957494784
0.000991647480697
0.000988937660702
0.00098588418786
0.00098254940771
0.000978998068999
0.000975292318684
0.000971426843027
0.000967579553385
3.21587903816e-05
5.42245423138e-05
6.02024602384e-05
6.32334044868e-05
6.85997589266e-05
8.0628302608e-05
8.85368877611e-05
0.000102533139687
0.000114801628059
0.000129117507114
0.000148878393629
0.000172082322331
0.00019460673291
0.000214555862419
0.000233933495939
0.000254378528361
0.0002752603038
0.000294939388753
0.000312995574478
0.000330265119841
0.00034742827057
0.000364373501513
0.000380707004681
0.000396512507111
0.000412195865581
0.00042805895061
0.000444119092049
0.000460343176637
0.00047691859441
0.000494116118095
0.000512106198348
0.00053090800724
0.000550503566256
0.00057091383488
0.00059213545326
0.000614076307281
0.000636617253917
0.000659657852392
0.000683085732609
0.000706735994928
0.000730430594856
0.000754017920356
0.000777355818881
0.000800288107485
0.00082266950057
0.00084438842354
0.000865350691964
0.000885454022541
0.0009045943238
0.000922676825744
0.00093961112626
0.000955303845195
0.000969666942744
0.000982640032921
0.000994211455313
0.00100442078492
0.00101333771221
0.00102104208532
0.00102761538243
0.00103313664491
0.00103767955617
0.00104131119109
0.00104409205145
0.00104607673661
0.00104731483938
0.00104785204769
0.00104773125519
0.00104699371775
0.00104568014608
0.00104383184252
0.0010414917902
0.00103870578817
0.00103552344914
0.00103199885183
0.00102819018257
0.0010241557407
0.00101994949341
0.00101557085795
0.00101118323595
3.47567210216e-05
5.89618496576e-05
6.56769351269e-05
6.90936275134e-05
7.49978740233e-05
8.80077206652e-05
9.65503788249e-05
0.000110594763898
0.000121010251547
0.000130975700521
0.000144920840237
0.000165647271816
0.000190439842343
0.000214492478449
0.000235577873659
0.000255859715347
0.000277113151896
0.000298694217119
0.000318843345783
0.000336979286953
0.000353959008668
0.000370503246753
0.000386506025381
0.000401551253371
0.000415637792078
0.000429148101501
0.000442381287603
0.000455361733492
0.000468054938715
0.000480617784809
0.000493308951568
0.000506315569874
0.000519710897981
0.000533567769547
0.000548056186981
0.000563372344675
0.000579638440771
0.00059688998999
0.000615132415535
0.000634374294349
0.000654593734327
0.000675703239969
0.000697577590149
0.000720084596638
0.000743075553225
0.000766366546743
0.000789760151403
0.000813071467091
0.000836127611968
0.000858756365273
0.000880799847264
0.000902127857057
0.000922632266245
0.000942210702318
0.000960767424596
0.000978218596352
0.000994489365708
0.00100950902812
0.00102321620141
0.00103557234527
0.00104657505001
0.0010562591485
0.00106468437514
0.00107192118499
0.00107804320094
0.00108312306841
0.00108722970183
0.00109042685951
0.00109277291766
0.00109432121583
0.00109512077377
0.00109521715374
0.00109465345865
0.00109347130787
0.0010917118538
0.00108941673801
0.00108662905959
0.00108339422658
0.00107976066085
0.00107577995606
0.00107150607571
0.0010669913842
0.00106228297901
0.00105738380917
0.00105244314216
3.8064566226e-05
6.48346435149e-05
7.20293872479e-05
7.44928161633e-05
7.6544731062e-05
8.24900685589e-05
9.65621419204e-05
0.00010676391692
0.000122966419003
0.000134754552977
0.000145738760701
0.000160779902521
0.000182851793465
0.000208807010106
0.000233012399383
0.00025268507371
0.00027021428296
0.00028870090682
0.000309512938495
0.000331376780935
0.000352013086495
0.000370556206282
0.000387798035579
0.000404461707017
0.000420407977229
0.000435162462511
0.000448633546048
0.000461176766877
0.000473093284201
0.000484405297905
0.000495060803796
0.000505168023247
0.000514954397727
0.000524595945885
0.000534167671943
0.00054374302122
0.000553482694252
0.000563586573025
0.000574208589404
0.000585450163257
0.000597416758069
0.000610254430597
0.00062411766103
0.000639106499095
0.000655261312459
0.000672589739561
0.000691081449511
0.000710694639303
0.000731332258756
0.000752856329995
0.000775106860958
0.00079790504297
0.000821045738806
0.000844312103975
0.000867494551088
0.000890396927875
0.000912833317538
0.000934636214636
0.000955665128311
0.000975804416426
0.000994953759811
0.00101302586579
0.00102994825083
0.00104566065975
0.00106011143082
0.00107326025332
0.00108508604572
0.00109559494047
0.0011048207641
0.001112817321
0.00111964844367
0.00112538165357
0.00113008431792
0.00113382111212
0.00113665260385
0.0011386348624
0.00113981962671
0.00114025486192
0.00113998547984
0.00113905421206
0.00113750247294
0.00113537126701
0.00113270201703
0.0011295373761
0.00112592186037
0.00112190227084
0.00111752750551
0.00111284746
0.00110790928999
0.00110275455423
0.00109738890464
0.00109194890712
4.18876498113e-05
7.17978283675e-05
8.00018940172e-05
8.2829796628e-05
8.51615144038e-05
9.18147961487e-05
0.00010738227316
0.000119230402742
0.000137181566054
0.000148952468368
0.000157709360431
0.000167833882573
0.000183724165617
0.000207961576131
0.000236694350354
0.000263496597289
0.000285005930743
0.000303831187198
0.000323395848179
0.000345162084971
0.000367617236478
0.000388074320525
0.00040552065942
0.000421061734264
0.00043619421754
0.000451584807176
0.000466792477206
0.00048104665667
0.000494051521672
0.000506055073697
0.000517304574751
0.000527778584963
0.000537375645774
0.000546142668328
0.000554265924782
0.000561901881832
0.00056911096525
0.00057594506052
0.000582529392973
0.000589032343235
0.0005955927179
0.000602308914029
0.000609287973329
0.0006166802942
0.000624656308666
0.000633359915863
0.000642906690562
0.000653411539589
0.000665002321178
0.000677804492999
0.00069190148996
0.000707329670603
0.00072408894984
0.000742149318127
0.000761445751476
0.000781864498853
0.0008032500212
0.00082541853988
0.000848165105287
0.000871264795665
0.000894483963854
0.000917595746154
0.000940387992775
0.000962665580552
0.000984255736612
0.00100501429655
0.00102482385088
0.00104358844873
0.00106122996577
0.00107768737891
0.00109291397186
0.00110687406295
0.00111954410046
0.00113091676572
0.0011410055329
0.00114984470478
0.00115748434481
0.00116398326863
0.00116940389388
0.00117380890146
0.00117725893747
0.00117981132708
0.00118151957253
0.00118243345241
0.00118259941831
0.00118206124891
0.00118086077465
0.00117903868958
0.00117663531442
0.00117369135819
0.00117024854475
0.00116635011158
0.00116204096196
0.00115736728676
0.00115237526694
0.00114710770681
0.00114160191508
0.00113586570305
0.00113002447733
4.60728804394e-05
7.9492964012e-05
8.88466739737e-05
9.20800010644e-05
9.47430774488e-05
0.000102284929741
0.000119776348673
0.00013451630337
0.000156405885398
0.000170667399466
0.000181112462073
0.000192826115156
0.000210799254563
0.000237879780393
0.000269615573629
0.000298497401682
0.000320235989008
0.000337327019212
0.000353797723757
0.000372799482668
0.000395236105118
0.000418959330511
0.000440712522469
0.000459117521773
0.000475263226722
0.000490750835
0.00050626865635
0.000521275619848
0.000534846443246
0.000546676323897
0.00055723775801
0.000567156473475
0.00057672768623
0.000585825415059
0.000594203562477
0.000601778984474
0.000608650961444
0.000614914325218
0.000620584212531
0.000625666877684
0.00063023855494
0.000634424238086
0.000638333453794
0.000642040987375
0.000645627524327
0.000649212508167
0.00065293634936
0.000656926012306
0.000661292021974
0.000666152881279
0.00067164982839
0.000677935786076
0.000685148718931
0.000693409245414
0.000702832129228
0.00071353047369
0.000725606632842
0.000739127300669
0.000754117732406
0.00077056393433
0.00078841556561
0.000807583565255
0.000827933899049
0.000849291871046
0.0008714532563
0.000894191982033
0.000917267144779
0.000940432870716
0.000963451991085
0.000986104022185
0.00100819014925
0.00102953750892
0.00105000342187
0.00106947380017
0.00108785933514
0.00110509152925
0.00112112065974
0.00113591196963
0.00114944308277
0.00116170347311
0.00117269628223
0.00118244069319
0.00119097156026
0.00119833604138
0.00120458856932
0.00120978680439
0.00121398881349
0.00121725109139
0.00121962740514
0.00122116829065
0.00122192108226
0.00122193022679
0.00122123784509
0.00121988436813
0.0012179092618
0.00121535170054
0.00121225123115
0.00120864827982
0.0012045845114
0.00120010281598
0.0011952467894
0.00119005938737
0.00118457992751
0.00117884266333
0.00117285720825
0.00116673929001
5.10542474618e-05
8.85942356305e-05
9.91145281928e-05
0.000102263420291
0.000103302224716
0.000105479825211
0.000113801131698
0.000133519470444
0.000152695164465
0.00018046215176
0.000198626687926
0.000211858981784
0.000226273295694
0.000247718647791
0.00027946438544
0.000316434773819
0.000350089837196
0.000375232214604
0.000394603810087
0.000412885854286
0.0004336978469
0.000458044587616
0.000483446950176
0.000506040110737
0.000524062860111
0.000538692030189
0.000552094715261
0.00056595635233
0.000580694093662
0.000595400820302
0.000608815212278
0.000620406085101
0.000630568979312
0.0006399221221
0.00064874476366
0.000656868876224
0.00066400128174
0.00067008116786
0.000675333714167
0.000680026764706
0.00068429257497
0.000688109510838
0.000691412846374
0.000694200496799
0.000696531380501
0.000698461989588
0.000700023322711
0.000701253654527
0.000702229305206
0.000703047941307
0.000703802745553
0.000704574888128
0.000705453347408
0.000706549911913
0.000707989603174
0.000709893947154
0.000712378949978
0.000715566391688
0.000719590371278
0.000724591580285
0.000730701449154
0.000738038726739
0.000746712262234
0.000756820819053
0.000768445880125
0.000781635835762
0.00079639944341
0.000812704879048
0.000830480645792
0.000849614319781
0.000869951332068
0.000891298910866
0.000913436102001
0.00093612215966
0.000959105766733
0.000982135073225
0.00100496966953
0.00102738839669
0.00104919499579
0.00107022162952
0.00109033172578
0.00110941832102
0.00112740064425
0.0011442201501
0.00115983741865
0.00117422823176
0.00118738056252
0.00119929353377
0.00120997760103
0.00121945564088
0.00122776228798
0.00123494164508
0.00124104365802
0.0012461210238
0.00125022685458
0.0012534130578