/*--------------------------------*- C++ -*----------------------------------*\
| =========                 |                                                 |
| \\      /  F ield         | OpenFOAM: The Open Source CFD Toolbox           |
|  \\    /   O peration     | Version:  2.3.1                                 |
|   \\  /    A nd           | Web:      www.OpenFOAM.org                      |
|    \\/     M anipulation  |                                                 |
\*---------------------------------------------------------------------------*/
FoamFile
{
    version     2.0;
    format      ascii;
    class       volScalarField;
    location    "100";
    object      p;
}
// * * * * * * * * * * * * * * * * * * * * * * * * * * * * * * * * * * * * * //

dimensions      [0 2 -2 0 0 0 0];

internalField   nonuniform List<scalar> 
10011
(
-12.7983262991
-15.5270306338
-16.4309515554
-16.7565079253
-17.0357650943
-17.3235594246
-17.6190434732
-17.9351742737
-18.2871858497
-18.6886834731
-19.1546891529
-19.7052471683
-20.369545853
-21.1928956969
-22.2480744328
-23.6652689538
-25.7604240602
-29.658143769
-16.5865754611
-16.9647910933
-17.1316352505
-17.1719874381
-17.2937275079
-17.4886794279
-17.7280218443
-18.0083756249
-18.3362998072
-18.7206452437
-19.1734987605
-19.7127904403
-20.3658379249
-21.1738536927
-22.2013287598
-23.5570135258
-25.4246318141
-27.8870398711
-16.4313518529
-16.2991687818
-16.5563571224
-16.7757864342
-17.0126779431
-17.2827943612
-17.5742952593
-17.8903641772
-18.2418521363
-18.6405835046
-19.10016223
-19.6385206597
-20.2802224975
-21.0603864672
-22.0306237814
-23.2634112212
-24.8430753592
-26.7223097024
-16.3430425036
-16.3548704841
-16.6829180943
-16.9355417783
-17.1599046439
-17.4038878318
-17.6699016902
-17.9628424313
-18.2929307861
-18.6709674991
-19.10892667
-19.6219101012
-20.2298342895
-20.9591350368
-21.8431104321
-22.915610858
-24.181629942
-25.4985509812
-16.3725188206
-16.4440896242
-16.711590784
-16.9315819119
-17.1351533177
-17.3647406203
-17.6225215004
-17.9100787898
-18.2345677206
-18.6046160497
-19.0299548467
-19.5224984418
-20.0967392127
-20.7692433394
-21.5552664639
-22.4572668246
-23.4335597901
-24.3247837148
-16.4359158142
-16.5082062298
-16.723099825
-16.9286736775
-17.1301133769
-17.3560605081
-17.6090485049
-17.8900838338
-18.2049406976
-18.5608190115
-18.965361152
-19.426942562
-19.9543477828
-20.5545919945
-21.227638719
-21.9544974917
-22.6729924102
-23.2425737399
-16.4860627693
-16.548839103
-16.728578065
-16.9218666605
-17.1179476062
-17.3354780844
-17.5781792131
-17.8472916846
-18.1471645182
-18.4830842383
-18.8601799834
-19.2830947814
-19.7548797239
-20.2741951705
-20.8299526995
-21.392039185
-21.8967300689
-22.2375389393
-16.5198158582
-16.5761506116
-16.7332180703
-16.9134955457
-17.1014527639
-17.3094894738
-17.5412802837
-17.7977696641
-18.0818279746
-18.3969716072
-18.7460977135
-19.130766345
-19.5498123935
-19.996620948
-20.4546484582
-20.8911366053
-21.2492030364
-21.451378182
-16.5440423261
-16.5956834619
-16.734630682
-16.9021635236
-17.0812887236
-17.2796145273
-17.5001768899
-17.7434509541
-18.011094368
-18.3050604218
-18.6263369026
-18.9740244395
-19.343905987
-19.7260657103
-20.1014990668
-20.4383210914
-20.6884028941
-20.7954574367
-16.5636584387
-16.610460396
-16.7318064177
-16.8850902542
-17.0532379836
-17.2395706371
-17.4461103865
-17.6727994528
-17.9200339937
-18.1881462268
-18.4762381879
-18.7811894679
-19.0963706422
-19.4098359438
-19.7021928318
-19.9450002451
-20.1005998172
-20.1309984018
-16.5759904006
-16.6176076812
-16.7223724397
-16.8601325234
-17.0148782871
-17.1865211117
-17.3758819651
-17.5822205097
-17.8046848895
-18.0420463914
-18.2917103637
-18.5488006923
-18.8051694144
-19.0482763217
-19.2602310062
-19.4177698291
-19.4937560839
-19.4648402126
-16.5777016298
-16.613910696
-16.7031419942
-16.8242178486
-16.9629897343
-17.1170164007
-17.2858002706
-17.4678088703
-17.6610541356
-17.8629565468
-18.069597544
-18.275005389
-18.470539826
-18.6444157563
-18.7816205327
-18.8647407289
-18.875896112
-18.8024211929
-16.5648500696
-16.5955324982
-16.6700366494
-16.7734116189
-16.893715714
-17.0270970807
-17.1718222211
-17.3255664068
-17.4854254483
-17.647832277
-17.8080752634
-17.9598505404
-18.095005202
-18.2035357722
-18.2739880495
-18.2945139177
-18.2545089498
-18.1484102507
-16.532863877
-16.5579598174
-16.6182787282
-16.7031283411
-16.8027213114
-16.9125683685
-17.0299806902
-17.1519859534
-17.2750867529
-17.3952097018
-17.5074620681
-17.6059401278
-17.6837335745
-17.7331760027
-17.7463756365
-17.7161205769
-17.6369665284
-17.5076302148
-16.4767341081
-16.4962378093
-16.542727369
-16.6084604797
-16.6855785889
-16.7695252887
-16.85705979
-16.944847155
-17.029197314
-17.1060518486
-17.1709168466
-17.2188512123
-17.2446048326
-17.2429210507
-17.2089828784
-17.1390213946
-17.0309100025
-16.8856726071
-16.3914366826
-16.4054154732
-16.438434568
-16.4848807741
-16.5385750202
-16.5952778381
-16.6516275579
-16.7042967964
-16.7498180479
-16.7846095317
-16.8050056321
-16.8073307471
-16.788057783
-16.7440461115
-16.6728216658
-16.572912597
-16.4441102978
-16.2884892511
-16.2726761008
-16.2812803221
-16.3014182652
-16.3291050666
-16.3596139179
-16.3892491561
-16.4149010126
-16.4336120551
-16.4424912509
-16.4387552757
-16.4197899737
-16.3832310852
-16.3270793816
-16.249835631
-16.1506308593
-16.0293772787
-15.8868554543
-15.7255055487
-16.1293151762
-16.1333819121
-16.1427579929
-16.154631934
-16.1653968284
-16.1719323806
-16.1715888186
-16.1619921849
-16.1409822144
-16.1066381241
-16.0573301868
-15.9917722127
-15.9090803151
-15.8088268548
-15.6910783017
-15.5564532513
-15.4061389757
-15.2426239319
-15.9865561844
-15.9875959287
-15.9897260411
-15.9908283926
-15.9879077614
-15.9782154067
-15.9595532626
-15.9301294765
-15.8884381186
-15.8332640935
-15.7637179708
-15.6792607071
-15.5797158742
-15.4652804921
-15.3365142212
-15.1943637592
-15.0401500003
-14.8763352304
-15.8582342306
-15.8574938727
-15.8555068834
-15.8504643932
-15.8393356735
-15.8194440225
-15.7889996351
-15.7467343677
-15.6916637076
-15.6230994439
-15.5406845345
-15.444383347
-15.3344674226
-15.2114981473
-15.076302379
-14.9299785134
-14.7738805865
-14.610438334
-15.7448166454
-15.743020649
-15.7393647775
-15.7319445322
-15.7167767679
-15.6910166192
-15.6533713753
-15.6030646258
-15.5395091117
-15.4624194165
-15.3718406326
-15.2680990275
-15.1517643704
-15.0236293856
-14.8846780888
-14.7360943656
-14.5792415112
-14.4165753047
-15.6452427317
-15.6424222433
-15.6392179338
-15.6327889236
-15.6167174947
-15.5880428856
-15.5462958463
-15.491152096
-15.4222919079
-15.3397512501
-15.2439061211
-15.1353590536
-15.0148937601
-14.883458837
-14.7421351876
-14.5921464828
-14.4348313122
-14.2726618867
-15.5581444555
-15.5531606144
-15.552648537
-15.5506959515
-15.5361933923
-15.5067264095
-15.4631687247
-15.4055445618
-15.3337070504
-15.2479913315
-15.1490548641
-15.0377053054
-14.9148755059
-14.7816202443
-14.6390862203
-14.4885249193
-14.3312707865
-14.1699567484
-15.4823480179
-15.4722776082
-15.4770966018
-15.4825397178
-15.4707536739
-15.4416690594
-15.3976969691
-15.338823449
-15.2650737177
-15.1771852865
-15.0761173986
-14.9628567578
-14.8384546981
-14.7040410952
-14.5607893504
-14.4099220603
-14.2526531941
-14.0915503736
-15.4164225895
-15.3973166427
-15.4148172134
-15.4306306085
-15.4213508846
-15.3939431753
-15.3519335498
-15.294254305
-15.220879933
-15.13291184
-15.0315493847
-14.9179213859
-14.7931937046
-14.658586586
-14.5153290945
-14.3646616467
-14.2077658078
-14.0475266306
-15.3555486539
-15.3103474071
-15.3571326236
-15.3877326173
-15.3765561351
-15.3463409033
-15.302778632
-15.2438132573
-15.1694891403
-15.0810998836
-14.9798061649
-14.866644476
-14.7427205144
-14.6092135028
-14.4673054455
-14.3181420111
-14.1626236267
-14.0030635067
-15.337903674
-15.2066327249
-15.3072368012
-15.3797997588
-15.3884662004
-15.3697711987
-15.3313278358
-15.2727576163
-15.1963619648
-15.1048073032
-14.9999149474
-14.8830940042
-14.7556926023
-14.6190456286
-14.4744354669
-14.3230740839
-14.1658704866
-14.0054871948
-15.4286159747
-15.0810775182
-15.1181018525
-15.1624541086
-15.1794215202
-15.1854495751
-15.1722634898
-15.1359510778
-15.0788930722
-15.0039452143
-14.9131255627
-14.8081593457
-14.6907574582
-14.5626023884
-14.4253015227
-14.2803640344
-14.1288182832
-13.9730561098
-15.7240962106
-15.7727530879
-15.7665612555
-15.6350186983
-15.5265879027
-15.4483229105
-15.3725380699
-15.2888219675
-15.1960774445
-15.094115313
-14.9826103786
-14.8616513358
-14.731805395
-14.5939449813
-14.4491276887
-14.2985847284
-14.1434244404
-13.9878484052
-12.0288375386
-14.2057680115
-14.9649832981
-15.1267208976
-15.186128954
-15.2148004815
-15.2073331767
-15.1687332033
-15.1070059787
-15.0269504617
-14.9311979639
-14.8217406337
-14.7004163245
-14.5689667429
-14.4290716387
-14.2824808071
-14.1308955866
-13.9816568136
15.6910588418
15.771755617
15.9526910206
15.9378734466
15.9118799618
15.9190718029
15.9357611224
15.9505562212
15.9643945151
15.978369144
15.992177025
16.0055250958
16.0183690858
16.0307054477
16.0425255514
16.0538421145
16.0646921009
16.0751354705
16.0852648177
16.0952236289
16.1052296538
16.1156104983
16.1268589626
16.1397260774
16.1553720939
16.175694727
16.2034546378
16.2480322097
16.3117280511
15.3360298602
15.443082696
15.549467143
15.6952127636
15.7936673809
15.9255446167
15.9383891656
15.9151709996
15.9166482944
15.9293957119
15.9421952051
15.9549254867
15.9682791683
15.9818134772
15.9951263708
16.0080836412
16.0206223609
16.032697943
16.0443004266
16.0554523997
16.0662055563
16.0766482498
16.0869220295
16.0972436383
16.1079393536
16.1194978336
16.1326585433
16.1485486476
16.1690054241
16.1966820948
16.2395430194
16.2868350737
14.878926051
14.9771058034
15.0677453551
15.1809450918
15.3277699003
15.4320497107
15.5461679488
15.6849308177
15.7778996683
15.8748703137
15.903677222
15.8981582435
15.9038827145
15.9175397667
15.9310849905
15.9442308079
15.957711529
15.9712868905
15.9846489788
15.9976834415
16.0103294232
16.022540124
16.0342992523
16.0456215607
16.0565508558
16.0671677062
16.0776042344
16.0880644617
16.0988546346
16.110428872
16.1234613687
16.1389420762
16.158418546
16.1837469173
16.2203031323
16.2473975297
14.4194528739
14.519737224
14.6111027677
14.7259646959
14.8716214897
14.9616652413
15.0609902314
15.1870314492
15.3309516618
15.4348762501
15.5446679679
15.6640576058
15.7538578321
15.8357512512
15.8739018729
15.8827308497
15.8930153526
15.9075327793
15.9217461312
15.9353562523
15.9490128418
15.9626348353
15.9760079523
15.9890438693
16.0016926339
16.0139130624
16.0256877131
16.0370259131
16.0479631622
16.0585687031
16.0689581495
16.0793109999
16.0898946127
16.1010981545
16.1134800929
16.1278080862
16.1451888055
16.1664819468
16.1945840027
16.2039089046
13.9474121453
14.0512397093
14.1445714723
14.261999892
14.4121320327
14.5028715168
14.6027866136
14.7288475641
14.8690601015
14.9640923213
15.0669430321
15.1909227273
15.3189573824
15.424091507
15.5298624889
15.638188429
15.7264054078
15.8008181471
15.8440064985
15.8631894351
15.8785823126
15.8951139475
15.9108160528
15.9255474871
15.9399003889
15.9539545043
15.9676147407
15.9808433781
15.9936203885
16.0059239559
16.0177455536
16.0290951855
16.04000321
16.0505269815
16.0607618791
16.0708544365
16.0810192858
16.091558232
16.1028804849
16.1154847724
16.1299842706
16.146274084
16.1655291073
16.1603928699
13.4604434494
13.5674422999
13.6632729357
13.7842193674
13.940159119
14.0329915298
14.1350102397
14.263850236
14.4077761236
14.5044694127
14.6080135884
14.7320114743
14.8571995205
14.9581201225
15.0634419659
15.182466911
15.3028173483
15.4097028289
15.5125750708
15.6132077558
15.6984664729
15.7684938691
15.8148196846
15.8415263898
15.8618083634
15.8808257644
15.8983098025
15.9144124122
15.9297207468
15.9444456711
15.958599762
15.9721956134
15.9852433223
15.9977412584
16.0096908614
16.0211035739
16.0320041804
16.0424362667
16.0524709247
16.0622150547
16.0718203448
16.0814871487
16.0914583466
16.1019515784
16.1131024101
16.1239422885
16.1347747348
16.1182228327
12.8421230253
12.9531569266
13.0437040852
13.1522792206
13.2848724491
13.4511470734
13.5467452403
13.6517818648
13.7850286829
13.9341974875
14.0339184665
14.1399556908
14.2671234086
14.3952718115
14.498147582
14.6044373827
14.7238567985
14.8434122361
14.9501370815
15.0575889387
15.1723614221
15.2871671025
15.3929625415
15.4927510776
15.5876741691
15.6698383116
15.7373580997
15.7859758575
15.8182718187
15.8429469937
15.8646456219
15.8841000899
15.9017573151
15.918227362
15.9338210995
15.9486442024
15.9627593385
15.9762068101
15.9890054005
16.0011663742
16.012702432
16.0236312798
16.0339805949
16.043793279
16.0531316246
16.0620774815
16.070722936
16.0791408653
16.0872813961
16.0948663024
16.1003153498
16.1032946222
16.0776910328
12.1945545928
12.3154137701
12.4119365142
12.5262509022
12.6647712345
12.8374619268
12.9293162453
13.0250765957
13.1490301302
13.2926308227
13.4471364104
13.5485806882
13.6574020719
13.7889512394
13.9211738399
14.0271837467
14.1361495828
14.2586364984
14.3811390637
14.4904063835
14.5996207992
14.7158115193
14.8320191411
14.9409158106
15.0488269504
15.1600556365
15.2703838572
15.3739587477
15.4709287333
15.5616188568
15.6411038181
15.70715571
15.75754011
15.7940538295
15.8225469706
15.8469280421
15.868437043
15.8877511406
15.905514354
15.9221130804
15.9377314653
15.9524795213
15.9664267099
15.9796108741
15.992052238
16.0037634667
16.0147535365
16.0250317335
16.0346098222
16.0435018522
16.0517165582
16.0592365987
16.0659714507
16.0716313775
16.0756002116
16.0758912223
16.0717076534
16.0389644813
11.5052475651
11.6385804599
11.7422683974
11.8630465281
12.0087206606
12.1926620606
12.2894841584
12.3908767996
12.5211537972
12.6697472299
12.8262299859
12.9245687534
13.0267139889
13.1553716667
13.2972241339
13.4331833802
13.5413602698
13.653392349
13.7798785456
13.9062559034
14.0191600467
14.1315233909
14.2509447827
14.370343776
14.4823311867
14.5928994475
14.7067954459
14.8205405502
14.9298361744
15.0374368188
15.1458347403
15.2524822883
15.3534781344
15.4478376299
15.535253925
15.6125295217
15.6776763501
15.729468728
15.769236834
15.8010086176
15.8279667878
15.8515447558
15.8725676063
15.8917101439
15.9094133803
15.9259245789
15.941395807
15.9559236329
15.9695629827
15.9823420876
15.9942721642
16.0053522295
16.0155711333
16.0249077883
16.0333260544
16.0407614909
16.0470907725
16.0520735036
16.0552145345
16.0556345452
16.0510952245
16.0404699395
16.0020248945
10.7665962738
10.9150841975
11.0268434168
11.1543551158
11.3082521807
11.505922721
11.6098555695
11.7183448096
11.8568182907
12.0135136783
12.1784077331
12.2825566141
12.3902731055
12.5249151079
12.6713714015
12.8084029837
12.9147952542
13.0237700291
13.1511741732
13.2872276498
13.4177076157
13.5334959968
13.6492146255
13.7723859079
13.8955593328
14.0113779344
14.1254281861
14.2428003916
14.3600957016
14.4730713236
14.5843061809
14.6967058778
14.8085646168
14.917359997
15.0241055553
15.1300656607
15.2335933931
15.3320008172
15.4239538698
15.5087618681
15.5842536717
15.6488217431
15.7017656141
15.7441035797
15.7786811533
15.8080520015
15.833659759
15.8564027661
15.8769741999
15.8958514459
15.913329263
15.9295951393
15.9447692764
15.9589215757
15.9720866804
15.9842733441
15.9954693395
16.0056420428
16.0147365057
16.022666495
16.0292964838
16.0344043894
16.0376170575
16.0382706806
16.0352920979
16.026315554
16.0100960349
15.9668947498
9.97448376145
10.1380774238
10.2575731596
10.3924149702
10.5557421455
10.7695433799
10.8826974004
10.9993482924
11.14719309
11.3137514083
11.489279636
11.601216908
11.7163514329
11.8596145292
12.0145798845
12.158569168
12.2708568939
12.3850699411
12.517547148
12.6574140542
12.7892832479
12.9047991281
13.0203576054
13.1464921499
13.2781462522
13.4060580816
13.5254281942
13.6431696386
13.7643419868
13.8855147978
14.0025403396
14.1176714922
14.2339667418
14.3498835683
14.4630228129
14.5743829575
14.6856158278
14.7958951324
14.9037158605
15.0092665722
15.1130420758
15.2138836822
15.3098564311
15.399614641
15.4822982619
15.556356596
15.6205447544
15.6744471185
15.7188590457
15.7558418156
15.787435676
15.8149978685
15.8394418939
15.8614632853
15.8815597263
15.900058775
15.9171758843
15.9330504826
15.9477649741
15.96135843
15.9738362443
15.9851738032
15.9953166891
16.0041758716
16.0116166473
16.0174361872
16.0213231773
16.022790237
16.0210401937
16.0148651429
16.0018585857
15.9807865994
15.933586178
8.96229997616
9.14638603089
9.27245479043
9.40572787086
9.55995200457
9.73916767658
9.97503931419
10.0993125157
10.2248821399
10.3838741378
10.5625948198
10.7510511998
10.8724322587
10.9962481652
11.1497489536
11.3151661979
11.4680344085
11.5881354464
11.7096982866
11.8501728781
11.9978388452
12.1363847522
12.2579820176
12.3787574941
12.5095074434
12.6447042335
12.7746437566
12.8951500889
13.0146565105
13.1398586505
13.2684958757
13.3948555777
13.5160455155
13.6352800347
13.7556524991
13.875715376
13.9931922158
14.1088881456
14.2245129049
14.3394271369
14.4522851338
14.5633795728
14.6735764488
14.7824571413
14.8890729184
14.9932477271
15.095028128
15.1935229212
15.2872724903
15.3750545982
15.4559809187
15.5288838099
15.5928202547
15.6475328026
15.693653121
15.7327084196
15.7663320289
15.7957518047
15.8218555779
15.845326026
15.8666669412
15.8862260021
15.9042385578
15.9208587772
15.9361783422
15.9502389633
15.9630413451
15.9745479627
15.9846823434
15.9933222878
16.0002868575
16.0053112965
16.008005218
16.0077857816
16.0037536392
15.994614102
15.9779759084
15.9526878001
15.902074952
7.86592580347
8.07234436274
8.20831492759
8.3507529733
8.51684451237
8.7099320452
8.96754025931
9.1005529472
9.22936593722
9.38352304606
9.56310847396
9.75704009354
9.95935306283
10.0895910258
10.2224308253
10.3879218434
10.5658620601
10.7292095643
10.8583235182
10.9885599873
11.1386591961
11.295960988
11.4431029735
11.5728515892
11.7012060287
11.8395714258
11.9820769016
12.1185797891
12.2451309592
12.3698175824
12.4994437135
12.6316448759
12.7606859638
12.8842022951
13.0064915706
13.13157593
13.2585291178
13.3839861285
13.506110822
13.6263187506
13.7463968588
13.8658253287
13.9833798387
14.0992720394
14.2144036042
14.3285301586
14.4408829186
14.5514594541
14.6606660251
14.7682491115
14.8735660155
14.9762928283
15.0762364101
15.1726566308
15.2644103959
15.3504348259
15.4298872876
15.5018555606
15.5656273982
15.621036416
15.6685908167
15.7094455821
15.7449152176
15.7760857712
15.8037937354
15.8286963265
15.8512916423
15.871936746
15.8908790843
15.9082830267
15.9242460522
15.9388107121
15.9519715742
15.9636779679
15.9738313336
15.9822778813
15.9887931995
15.9930567524
15.9946092575
15.9927900689
15.9866240347
15.9747668035
15.9548765266
15.9259212413
15.8723598239
6.48308171085
6.72027060111
6.86876671339
7.01942684924
7.18639923232
7.37013767607
7.58051366201
7.86797169203
8.01677481636
8.15684245707
8.32467575201
8.52025749729
8.72939152581
8.94523250016
9.0823362046
9.21777219629
9.38400770149
9.57183368915
9.76343015206
9.93685545916
10.0747434468
10.2144236815
10.3756371679
10.5442487013
10.7015111188
10.840786189
10.9782533338
11.1258966366
11.2775225682
11.4225427188
11.5572863007
11.6895883314
11.8265167631
11.96565418
12.1011155956
12.2305843878
12.358092399
12.4876709921
12.6184578281
12.7472584369
12.8726824318
12.9968590077
13.1221484168
13.2482159644
13.3731450023
13.4957407654
13.61654549
13.7365545219
13.8556226483
13.9730908345
14.0889489113
14.2036493744
14.3170922206
14.428822925
14.538727187
14.6469532909
14.7533022405
14.857300736
14.9585800981
15.0568289765
15.1514029428
15.24138106
15.3258548206
15.4040633749
15.4752734423
15.5389437986
15.5949634341
15.6437437753
15.6861759586
15.7233248491
15.7561381133
15.7853873242
15.8116945507
15.8355432876
15.8572907373
15.8771898061
15.8954102455
15.912052314
15.9271571675
15.9407122617
15.9526532658
15.9628601934
15.971149176
15.9772558795
15.9808099015
15.9812932087
15.9779826995
15.9698493644
15.9555263268
15.932740547
15.9005937503
15.84446475
4.97080334318
5.24177735471
5.40396784207
5.5655792967
5.74563899868
5.94458104597
6.17124350024
6.48964037125
6.65429039345
6.80473491231
6.97902436239
7.17153668718
7.38646619344
7.61399472489
7.847990641
7.99754572893
8.14416487433
8.32533949093
8.52967729481
8.73585623322
8.91924169582
9.06366285112
9.20833956548
9.37567013184
9.55800096234
9.74000631156
9.90747888966
10.0563789648
10.2037358103
10.3617976908
10.5238728735
10.6787852506
10.8230865458
10.9645218337
11.1103629717
11.2581900007
11.4019879557
11.5395240479
11.674612287
11.8113266814
11.9488569191
12.0839883148
12.2153189386
12.3448120866
12.4748022359
12.6050848121
12.7339765662
12.8606566404
12.9861363016
13.11178043
13.2374760327
13.3621404029
13.4849850522
13.6061470872
13.7261604317
13.8449960495
13.9622938374
14.0779747909
14.1922468469
14.3050502082
14.4160970291
14.5252421119
14.6324892894
14.7376529061
14.8403564824
14.9402339103
15.0369211639
15.1298490056
15.2182561277
15.3013723195
15.3785274892
15.4491232723
15.5127423748
15.5693088997
15.6191571944
15.6629877555
15.7016692438
15.7360220735
15.7667475137
15.794426069
15.8195200923
15.8423794659
15.8632569207
15.8823230686
15.8996781982
15.9153598365
15.9293475446
15.9415628459
15.9518652978
15.9600425556
15.9657941772
15.9687055267
15.9682092851
15.9635329239
15.9536111763
15.9370736105
15.9117255766
15.8768013777
15.818434338
3.33138276609
3.63253697121
3.80690541729
3.97911402223
4.17167800727
4.38487753968
4.62646616617
4.97928693297
5.16484250782
5.32888266657
5.51922456726
5.73027749796
5.96540692486
6.21139379875
6.46350254715
6.62593425585
6.7814419227
6.96965890162
7.17910524634
7.40179113093
7.62385277866
7.82063254346
7.97712812635
8.13391911392
8.31526914682
8.51208039883
8.70689639144
8.88439159257
9.04151524773
9.19672908121
9.3643059344
9.54111055934
9.71684253036
9.88264862648
10.0371034291
10.1885553622
10.3444006089
10.5021343882
10.6555782922
10.8025400399
10.9467039941
11.0921450253
11.2381331667
11.3814561332
11.5207178793
11.6577302797
11.794771074
11.9317090185
12.066893537
12.1994926081
12.330435822
12.4610605715
12.5914025879
12.7206106379
12.8482034929
12.9746385563
13.1006857051
13.2262993318
13.3508610773
13.4738424884
13.595208991
13.7152205878
13.8338692251
13.9509441187
14.0663572182
14.1801793286
14.2923559989
14.402687792
14.5110292218
14.6173039309
14.7213305103
14.8227893618
14.9213355785
15.016592179
15.1080522618
15.1950763172
15.2770123247
15.3532789079
15.423381344
15.4869931948
15.5440613785
15.5948588512
15.6399449592
15.6800334369
15.7158318009
15.7479704689
15.7769852755
15.8033125133
15.827289434
15.8491635199
15.869102696
15.8872043803
15.9035008709
15.917962741
15.9304974662
15.940944815
15.9490661114
15.9545281446
15.9568777439
15.9555063093
15.9496031245
15.9380798981
15.9195755702
15.8919767768
15.8546382087
15.7943332643
1.31439918569
1.64163876578
1.83037743977
2.01943945284
2.22874963311
2.44422911602
2.67402320428
2.93369781696
3.32910383273
3.53801905566
3.71651306888
3.92529621862
4.15710908291
4.41398212125
4.67975322173
4.95216669529
5.13196306097
5.30219343713
5.50908475645
5.73943298368
5.98280110885
6.22282186675
6.433157065
6.60109769274
6.76800940967
6.95923760745
7.1675598049
7.38252536401
7.59221971445
7.7830475779
7.95304528013
8.12105431119
8.30187529957
8.49182278971
8.67958040091
8.85588631547
9.01988803579
9.18104087847
9.34816782491
9.52049542185
9.69179575992
9.85662240948
10.0140988374
10.1683971482
10.3237182853
10.4793649363
10.632148134
10.7806726691
10.9266561127
11.0722958031
11.2175419529
11.360788683
11.501189672
11.6395845698
11.7772232573
11.9142062013
12.0497309358
12.1833213631
12.3154094062
12.4467565115
12.5774603635
12.707107853
12.8354194683
12.962587609
13.0890263202
13.2147032291
13.3392501096
13.4623027295
13.5837643244
13.7037326057
13.8221899005
13.9389986264
14.0540767613
14.1674194411
14.2789693371
14.3885729956
14.4960938317
14.6014149239
14.7043564498
14.8046381264
14.9019399722
14.995895804
15.0860535678
15.1718682061
15.2527876455
15.32830975
15.3980242743
15.4616708206
15.5192113096
15.5708697811
15.6170987261
15.6584889029
15.6956496002
15.7291430572
15.7594596245
15.7870063633
15.8121041227
15.8349910327
15.85582944
15.87471131
15.89166243
15.9066433896
15.9195479403
15.9301967367
15.9383270402
15.943575946
15.9454570637
15.9433272812
15.9363469701
15.9234145172
15.9031864061
15.8736296623
15.8341992174
15.7722443791
-1.19259241713
-0.835970142801
-0.629331018786
-0.412893504628
-0.171517267443
0.0729570844818
0.314132615532
0.569902772299
0.85083205272
1.29604334225
1.5203573324
1.70978530274
1.93970875235
2.18963566424
2.4505616606
2.73490032741
3.02369193537
3.31253808106
3.50394265904
3.68748775761
3.91596354732
4.17112934854
4.43818677873
4.69776924383
4.92253450717
5.10470662897
5.28726758954
5.49687587144
5.72486394754
5.9585663644
6.18447089789
6.38883761524
6.57122043522
6.75139599072
6.94491425768
7.14993047619
7.35845880498
7.56145746677
7.75145437595
7.92855285655
8.10256667469
8.28246154324
8.46724661923
8.65028337358
8.82603695055
8.99405458811
9.15928852164
9.32684881645
9.49677199546
9.6655480113
9.82990783539
9.98914994091
10.1453485341
10.3008242941
10.4556059627
10.6081685389
10.7576765643
10.9049198476
11.0510518647
11.1962387937
11.3397235233
11.4810151508
11.6204980197
11.7588506672
11.8962259428
12.0322598334
12.166694061
12.2997318384
12.4318033315
12.5630045284
12.6931420726
12.8220513391
12.9498001894
13.0765932978
13.2023942283
13.3269656542
13.4500485195
13.571528325
13.6914102442
13.8096613112
13.9261774711
14.0408832025
14.1537354378
14.2646701071
14.3735603757
14.480278731
14.5846903693
14.6866203529
14.7858151621
14.8819815586
14.9747758034
15.0637938736
15.1485682697
15.228628504
15.3035447371
15.3729722008
15.4367009527
15.4947027418
15.5471625205
15.5944505218
15.6370592916
15.6755134411
15.7103120379
15.741900505
15.7706554569
15.796878503
15.8207957443
15.8425612877
15.8622599328
15.8799095345
15.8954603314
15.9087923639
15.9197083346
15.9279232131
15.9330476442
15.9345662913
15.9318075689
15.9239098506
15.9097654799
15.8880525768
15.8568160349
15.8155848401
15.7522723739
-3.61228003576
-3.22388603327
-3.02061628087
-2.79605875393
-2.54228389978
-2.28536548118
-2.01032317945
-1.70718633723
-1.20219173161
-0.933111127947
-0.721911930902
-0.471150058577
-0.201731889086
0.0711858756392
0.355209790418
0.668946028221
0.983580388414
1.29877090131
1.5013276722
1.69377621893
1.93638741607
2.20301421737
2.47928787061
2.76580728811
3.04488100806
3.28680321393
3.48331511444
3.681545638
3.91047380619
4.15893069364
4.41265731622
4.6571409696
4.87808439922
5.07605620056
5.27257986083
5.48360560546
5.7065505833
5.93244173682
6.15150379004
6.35596813462
6.54635400124
6.73363725866
6.92778392955
7.12901527543
7.33214080109
7.53087519027
7.72072309825
7.90188637887
8.0798495239
8.25997886128
8.44222567363
8.62282891129
8.79846177075
8.96875881967
9.13643093006
9.30447900667
9.47317338012
9.64055166947
9.80462182289
9.96481966604
10.1222176354
10.2781344231
10.4327946745
10.5854718099
10.7356796269
10.8838212802
11.0305284438
11.1759972774
11.3198718978
11.461874099
11.602202256
11.7412448923
11.8791429415
12.0157343127
12.1508819028
12.2846935456
12.4174208979
12.5491404149
12.6797540674
12.809157603
12.9373626977
13.0644597654
13.1904020868
13.3150168111
13.4381052694
13.5595515387
13.6793140108
13.7973438844
13.9135522294
14.0278668704
14.1402272359
14.250565367
14.3587682359
14.4647172908
14.5682738099
14.6692686611
14.7674706114
14.8626107978
14.9543714639
15.0423919533
15.1262643815
15.2055849481
15.2799833674
15.3491689547
15.4129692593
15.4713639635
15.524509346
15.5727149286
15.6163977414
15.6560127109
15.692003559
15.7247736903
15.7546698175
15.7819726702
15.8068943777
15.8295783728
15.8501006155
15.8684693558
15.8846238675
15.8984300033
15.9096732213
15.918047145
15.9231382628
15.9244049276
15.921151015
15.9124966033
15.8973314709
15.8743548546
15.841685136
15.7988946167
15.7345223789
-5.84711064478
-5.44407449862
-5.23947488993
-5.00283111859
-4.72773716316
-4.43030524766
-4.11145026004
-3.59907167145
-3.34765116728
-3.11394088902
-2.83810042368
-2.53967312482
-2.22375905708
-1.8715079534
-1.52259064447
-1.16374395289
-0.933923894314
-0.728718988484
-0.470190736809
-0.187983411832
0.0998152292204
0.396400758786
0.706448318435
1.00721229533
1.26854965453
1.48155336245
1.69439123075
1.93898480917
2.20257869381
2.47341482997
2.74665926143
3.0099590685
3.24819370475
3.46191558155
3.67470058636
3.90376840394
4.14564571721
4.39028194872
4.6271630399
4.84827113593
5.05451538005
5.25804953617
5.46909176884
5.68755446953
5.90752299622
6.12213744509
6.32666845729
6.52163670223
6.71350932261
6.90862030082
7.1076856285
7.30744877937
7.503668264
7.69346235347
7.87692641938
8.05725698917
8.2377463293
8.41866627541
8.59790432045
8.77344322668
8.94498921192
9.11409183657
9.28255509978
9.45067004387
9.61731329343
9.78123040511
9.9419870281
10.1001598972
10.2565270606
10.4113339366
10.5642466141
10.7149927373
10.8638036048
11.0110479056
11.1569014505
11.3012033487
11.4438018357
11.5848150576
11.7244783073
11.8629093538
12.0000419512
12.1358061501
12.2702661423
12.4035738356
12.5357845848
12.6668428134
12.7966737069
12.9252605047
13.0526284774
13.1787204552
13.3033954727
13.4264904508
13.5478910945
13.6675309971
13.7853496274
13.9012632234
14.0152010313
14.1270948505
14.2368735505
14.3444341618
14.4496650712
14.5524302228
14.6525691411
14.7498681923
14.8440815201
14.9349183036
15.0220545755
15.1051331063
15.1838034324
15.2577467369
15.3267147132
15.3905651442
15.4492850388
15.5030095542
15.5520032637
15.5966247388
15.6372723718
15.6743421616
15.7081997241
15.7391632379
15.767492563
15.7933846442
15.8169710903
15.8383176317
15.857422157
15.8742123274
15.8885399986
15.9001738196
15.9087874314
15.9139448509
15.9150807044
15.9114770213
15.9022384178
15.8862537188
15.8622409751
15.8283887996
15.7842777822
15.7191725529
-8.1287340192
-7.75128918985
-7.56077243916
-7.32269444045