/*--------------------------------*- C++ -*----------------------------------*\
| =========                 |                                                 |
| \\      /  F ield         | OpenFOAM: The Open Source CFD Toolbox           |
|  \\    /   O peration     | Version:  2.3.1                                 |
|   \\  /    A nd           | Web:      www.OpenFOAM.org                      |
|    \\/     M anipulation  |                                                 |
\*---------------------------------------------------------------------------*/
FoamFile
{
    version     2.0;
    format      ascii;
    class       surfaceScalarField;
    location    "100";
    object      phi;
}
// * * * * * * * * * * * * * * * * * * * * * * * * * * * * * * * * * * * * * //

dimensions      [0 3 -1 0 0 0 0];

internalField   nonuniform List<scalar> 
19742
(
3.08872878116e-06
4.49114641782e-08
3.01649399804e-06
7.22350624532e-08
2.95693473674e-06
5.9559513879e-08
2.89815442882e-06
5.87805479403e-08
2.84307456039e-06
5.50800980985e-08
2.79319828986e-06
4.98765070443e-08
2.74867117349e-06
4.45273381304e-08
2.7093652678e-06
3.93060638407e-08
2.67517053355e-06
3.41948721167e-08
2.64605267144e-06
2.91179858914e-08
2.62209950328e-06
2.39532927384e-08
2.60359500442e-06
1.85046084055e-08
2.59115133027e-06
1.2443772961e-08
2.58648271825e-06
4.66870329829e-09
2.59359998114e-06
-7.11717984005e-09
2.62208699113e-06
-2.84869295382e-08
2.70301844584e-06
-8.09313867027e-08
-2.39021402015e-07
2.9420399227e-06
3.46924299838e-06
3.18789433421e-08
3.46050198856e-06
8.09763252122e-08
3.44889845917e-06
7.11632811998e-08
3.438051647e-06
6.96275840554e-08
3.42696314226e-06
6.61688202027e-08
3.41615515356e-06
6.06847106015e-08
3.40608433983e-06
5.45983462846e-08
3.3971674869e-06
4.82230598891e-08
3.38986171788e-06
4.15007644732e-08
3.38468349764e-06
3.42963167273e-08
3.382261772e-06
2.63751309943e-08
3.38346444064e-06
1.73020348969e-08
3.38981998352e-06
6.08831998912e-09
3.40363089221e-06
-9.14212849699e-09
3.42862075483e-06
-3.21069673706e-08
3.47207398557e-06
-7.1940092517e-08
3.54416824247e-06
-1.53025583727e-07
-3.20730771411e-07
3.62587766339e-06
3.81000301129e-06
3.38709898269e-08
3.82067443244e-06
7.03050589415e-08
3.82599039294e-06
6.5847470642e-08
3.83220836071e-06
6.3409769176e-08
3.83828600563e-06
6.0091328276e-08
3.84427787445e-06
5.46930024849e-08
3.850660049e-06
4.82163185431e-08
3.85786719865e-06
4.10160263761e-08
3.86634142401e-06
3.30266387821e-08
3.87660107992e-06
2.40367537729e-08
3.88932187236e-06
1.36544292289e-08
3.90550259775e-06
1.12138874392e-09
3.92650340504e-06
-1.49124146236e-08
3.95434864642e-06
-3.69873047283e-08
3.9924682384e-06
-7.022649943e-08
4.0454982939e-06
-1.24970093815e-07
4.11386582218e-06
-2.2139306096e-07
-3.85178431853e-07
4.17831352808e-06
4.20698703434e-06
3.12905034707e-08
4.21844113018e-06
5.8851126537e-08
4.22613960429e-06
5.81491529155e-08
4.23427154719e-06
5.52779818457e-08
4.2429472014e-06
5.14158278576e-08
4.25220630778e-06
4.54340512687e-08
4.26242207587e-06
3.80006870504e-08
4.27395545175e-06
2.94827645515e-08
4.28718199818e-06
1.98001870519e-08
4.30257453925e-06
8.64430507548e-09
4.32077334201e-06
-4.54429055182e-09
4.34263882419e-06
-2.07440159499e-08
4.3693928635e-06
-4.16663885737e-08
4.40272200192e-06
-7.03163821469e-08
4.44446075816e-06
-1.11965201521e-07
4.49493064406e-06
-1.75439926594e-07
4.54723119619e-06
-2.73693566937e-07
-4.16119079458e-07
4.57817188589e-06
4.64191280465e-06
2.65853721417e-08
4.65234576726e-06
4.84182680692e-08
4.66100337678e-06
4.94916472106e-08
4.67010830109e-06
4.61731628897e-08
4.68015939465e-06
4.1364844722e-08
4.69117046049e-06
3.44230974411e-08
4.70339836846e-06
2.57728833855e-08
4.71716858249e-06
1.57126374237e-08
4.73285046369e-06
4.11838383088e-09
4.75090213847e-06
-9.40729731435e-09
4.77191356634e-06
-2.55556496356e-08
4.79662972221e-06
-4.54601117378e-08
4.82593474459e-06
-7.09713550424e-08
4.86064676533e-06
-1.05028353793e-07
4.90081053874e-06
-1.52128928627e-07
4.94386771641e-06
-2.184970622e-07
4.9809631515e-06
-3.10788964201e-07
-4.29207902224e-07
4.99405202871e-06
5.11975740335e-06
2.13772457565e-08
5.12973320179e-06
3.84426118729e-08
5.13932656471e-06
3.98984212615e-08
5.14946008076e-06
3.60397805841e-08
5.16065349532e-06
3.01715646383e-08
5.17296347093e-06
2.21132489177e-08
5.18661442842e-06
1.21220409493e-08
5.20192459409e-06
4.02568765476e-10
5.21925178462e-06
-1.32087209471e-08
5.23901164245e-06
-2.91670777087e-08
5.26168015456e-06
-4.82240910853e-08
5.28776092369e-06
-7.15408194554e-08
5.31764713554e-06
-1.0085751281e-07
5.35127789218e-06
-1.38659063809e-07
5.38737683045e-06
-1.88227821274e-07
5.42208485061e-06
-2.53205042977e-07
5.44719417395e-06
-3.35898238842e-07
-4.32352670957e-07
5.45033897629e-06
5.64613359128e-06
1.62540341653e-08
5.6558518128e-06
2.87244895839e-08
5.66615355109e-06
2.95967797482e-08
5.67717853842e-06
2.50148951895e-08
5.68934841054e-06
1.80017968774e-08
5.7027520777e-06
8.70968644779e-09
5.71758148089e-06
-2.70726841681e-09
5.73411836647e-06
-1.61342336764e-08
5.75266891875e-06
-3.17592008224e-08
5.77355012901e-06
-5.00482196887e-08
5.79706119253e-06
-7.17350947535e-08
5.82339836612e-06
-9.78779375801e-08
5.85246422764e-06
-1.2992332804e-07
5.88350747212e-06
-1.69702262299e-07
5.91451841284e-06
-2.19238724933e-07
5.94144090919e-06
-2.8012749809e-07
5.95766441445e-06
-3.52121708778e-07
-4.30005257708e-07
5.95531705109e-06
4.40977695986e-06
1.26320758532e-08
4.4165009931e-06
2.20006018961e-08
4.42419740585e-06
2.19005061726e-08
4.43257855001e-06
1.66338922007e-08
4.44184637939e-06
8.73410246903e-09
4.45208584423e-06
-1.52964967192e-09
4.4634112193e-06
-1.40325316638e-08
4.47599065635e-06
-2.87135709133e-08
4.4900066538e-06
-4.57751150128e-08
4.50562668045e-06
-6.56681689787e-08
4.52296333856e-06
-8.90716888835e-08
4.54199397447e-06
-1.16908517571e-07
4.56241408859e-06
-1.50343394742e-07
4.58340425851e-06
-1.90692391842e-07
4.6033154727e-06
-2.39149902543e-07
4.61938339915e-06
-2.96195393629e-07
4.62776996701e-06
-3.60508239759e-07
-4.26969423912e-07
4.62473418026e-06
5.14373672345e-06
8.82608226575e-09
5.15082785856e-06
1.49095660433e-08
5.1592568084e-06
1.34716615424e-08
5.16861836799e-06
7.27244139716e-09
5.17902041742e-06
-1.66783530431e-09
5.19051209501e-06
-1.30212237592e-08
5.20317188327e-06
-2.66922216401e-08
5.21712157484e-06
-4.26631801556e-08
5.23247864702e-06
-6.11321097696e-08
5.24931313096e-06
-8.25025886536e-08
5.26759183521e-06
-1.0735033334e-07
5.28708604068e-06
-1.36402674171e-07
5.3072292443e-06
-1.70486553988e-07
5.32692760128e-06
-2.1039071235e-07
5.34436265175e-06
-2.56584921524e-07
5.35691242129e-06
-3.08745130447e-07
5.36143541714e-06
-3.65031200069e-07
-4.20882333733e-07
5.3553483715e-06
5.99982999729e-06
4.88189017091e-09
6.00719954989e-06
7.54015044108e-09
6.01625842676e-06
4.41292233677e-09
6.02650277201e-06
-2.97176864328e-09
6.03793853191e-06
-1.31034666884e-08
6.050559339e-06
-2.56419109949e-08
6.06438698042e-06
-4.05197595593e-08
6.07947239117e-06
-5.77484993778e-08
6.09584087345e-06
-7.75005153659e-08
6.11343854901e-06
-1.0010019393e-07
6.13206831171e-06
-1.25980040164e-07
6.15129899107e-06
-1.55633301226e-07
6.17034660748e-06
-1.89534130133e-07
6.18794727211e-06
-2.2799133208e-07
6.20227563709e-06
-2.70913261448e-07
6.21101684882e-06
-3.17486311246e-07
6.2117550232e-06
-3.65769337955e-07
-4.11981117523e-07
6.2028538524e-06
6.99839628224e-06
8.54603972136e-10
7.00592765726e-06
8.89310628581e-12
7.01547334709e-06
-5.13264572438e-09
7.02643690618e-06
-1.39352036682e-08
7.03870902307e-06
-2.5375464513e-08
7.05221541891e-06
-3.9148195769e-08
7.06690151564e-06
-5.5205756683e-08
7.08272375491e-06
-7.35706519333e-08
7.09959229154e-06
-9.43689737401e-08
7.11731188381e-06
-1.17819722326e-07
7.13551836388e-06
-1.44186458334e-07
7.1536023227e-06
-1.73717213892e-07
7.17062816014e-06
-2.06559905203e-07
7.18527554866e-06
-2.42638691181e-07
7.19585399297e-06
-2.81491663223e-07
7.20046241762e-06
-3.22094717578e-07
7.19737530573e-06
-3.62682178221e-07
-4.00302745299e-07
7.18569696667e-06
8.16315719775e-06
-3.18375248857e-09
8.17071459413e-06
-7.54837745296e-09
8.18053915761e-06
-1.49570857118e-08
8.19196611081e-06
-2.53620354843e-08
8.2047627228e-06
-3.81719613243e-08
8.21876843563e-06
-5.31538009726e-08
8.2338339682e-06
-7.02711912145e-08
8.24980188266e-06
-8.95384906158e-08
8.26645224974e-06
-1.11019267738e-07
8.28344528136e-06
-1.34812691981e-07
8.30026737388e-06
-1.61008497745e-07
8.31617961714e-06
-1.89629394351e-07
8.33018061427e-06
-2.20560849736e-07
8.34100904456e-06
-2.53467067391e-07
8.34722080341e-06
-2.8770339606e-07
8.34737530628e-06
-3.2224918055e-07
8.34035202984e-06
-3.55658885416e-07
-3.85742644952e-07
8.32579198507e-06
9.52178323021e-06
-7.14013620607e-09
9.52919169036e-06
-1.4956719192e-08
9.53900365534e-06
-2.47689277831e-08
9.55051951986e-06
-3.68777814409e-08
9.5633831553e-06
-5.10354815728e-08
9.57733016288e-06
-6.71006975905e-08
9.5921025353e-06
-8.50434799606e-08
9.60741891277e-06
-1.04854781529e-07
9.62292816133e-06
-1.2652845971e-07
9.63816213458e-06
-1.50046601736e-07
9.65249874201e-06
-1.75345057674e-07
9.66513956867e-06
-2.0227014737e-07
9.67511229505e-06
-2.30533526139e-07
9.68131491724e-06
-2.59669626111e-07
9.68261771329e-06
-2.89006166576e-07
9.6780295503e-06
-3.17660980799e-07
9.66691926887e-06
-3.44548576025e-07
-3.68110869801e-07
9.64928751352e-06
1.11065460187e-05
-1.08902701041e-08
1.11135703349e-05
-2.19809223111e-08
1.11229787167e-05
-3.41771950409e-08
1.11340636531e-05
-4.79626100092e-08
1.11463593402e-05
-6.33310552103e-08
1.11594901335e-05
-8.02313892369e-08
1.1173086026e-05
-9.8639273251e-08
1.11867477313e-05
-1.18516419165e-07
1.12000120439e-05
-1.39792699093e-07
1.12123207667e-05
-1.6235527825e-07
1.12230043222e-05
-1.86028540648e-07
1.12312849668e-05
-2.10550747056e-07
1.12363060633e-05
-2.35554536494e-07
1.12371931874e-05
-2.6055672182e-07
1.12331498082e-05
-2.84962724481e-07
1.12235787481e-05
-3.08089911382e-07
1.12082148568e-05
-3.29184630824e-07
-3.47176041295e-07
1.11872800316e-05
1.29550901371e-05
-1.42729096521e-08
1.29614178593e-05
-2.83085348341e-08
1.29699198596e-05
-4.26791039593e-08
1.297989814e-05
-5.79407793176e-08
1.29908028136e-05
-7.42356269867e-08
1.30021574325e-05
-9.15858989223e-08
1.30134942771e-05
-1.09976027735e-07
1.3024323242e-05
-1.29345298307e-07
1.3034110565e-05
-1.49579954659e-07
1.30422655706e-05
-1.70510217786e-07
1.30481420897e-05
-1.91905002123e-07
1.30510581431e-05
-2.13466728697e-07
1.30503349173e-05
-2.348312565e-07
1.30453542156e-05
-2.55575960635e-07
1.3035629134e-05
-2.75237606844e-07
1.30208777031e-05
-2.93338434847e-07
1.30010886224e-05
-3.09395526999e-07
-3.22694496661e-07
1.29766071254e-05
1.51113338345e-05
-1.70889710956e-08
1.51165764706e-05
-3.35510741241e-08
1.5123568662e-05
-4.9671174669e-08
1.51316337219e-05
-6.60057487885e-08
1.51401716768e-05
-8.27734614811e-08
1.5148636194e-05
-1.00050318288e-07
1.51564975789e-05
-1.17837302753e-07
1.51632225086e-05
-1.36070146519e-07
1.51682656201e-05
-1.54622979925e-07
1.51710701061e-05
-1.73314637308e-07
1.51710799337e-05
-1.91914759464e-07
1.51677641906e-05
-2.10150920925e-07
1.51606518551e-05
-2.27718861957e-07
1.51493729824e-05
-2.4429703095e-07
1.51337002422e-05
-2.59564824199e-07
1.5113583522e-05
-2.73221662051e-07
1.50891737245e-05
-2.849857026e-07
-2.94393729282e-07
1.50608730167e-05
1.76265184937e-05
-1.91055600944e-08
1.76302426046e-05
-3.72750325815e-08
1.76350758532e-05
-5.45043021004e-08
1.76403733896e-05
-7.13031467146e-08
1.76455228399e-05
-8.79227961177e-08
1.76499554914e-05
-1.04482842215e-07
1.76531336963e-05
-1.21015410201e-07
1.76545427617e-05
-1.37479102292e-07
1.76536911901e-05
-1.53771334855e-07
1.76501184087e-05
-1.69741760862e-07
1.76434086704e-05
-1.85204964635e-07
1.76332109597e-05
-1.999531244e-07
1.76192614628e-05
-2.13769318424e-07
1.76014059784e-05
-2.26441470035e-07
1.7579617162e-05
-2.37775970357e-07
1.75540041556e-05
-2.47608585235e-07
1.75248148685e-05
-2.55796386213e-07
-2.62048733812e-07
1.74924699525e-05
1.78272061516e-05
-2.00699493041e-08
1.78289498789e-05
-3.9018576e-08
1.78310050321e-05
-5.6559286277e-08
1.78328329241e-05
-7.31308746152e-08
1.78339105383e-05
-8.90002829671e-08
1.78337614427e-05
-1.04333597858e-07
1.78319549257e-05
-1.19208801086e-07
1.78281031228e-05
-1.33627170126e-07
1.78218635973e-05
-1.47531744603e-07
1.78129462994e-05
-1.60824350675e-07
1.78011218464e-05
-1.73380464255e-07
1.77862315747e-05
-1.85062747207e-07
1.77681963275e-05
-1.9573403148e-07
1.77470235025e-05
-2.05268547357e-07
1.77228089449e-05
-2.1356138339e-07
1.76957344682e-05
-2.20534017304e-07
1.76660623102e-05
-2.26124207073e-07
-2.30145148887e-07
1.7634158805e-05
1.58815907664e-05
-2.02895041443e-08
1.58819259913e-05
-3.93536087162e-08
1.5882032071e-05
-5.6665188765e-08
1.58814771525e-05
-7.2575782637e-08
1.58798551348e-05
-8.73780960744e-08
1.58768224653e-05
-1.01300803966e-07
1.58720894856e-05
-1.14475670813e-07
1.58654137574e-05
-1.26951360538e-07
1.58566021301e-05
-1.38719979506e-07
1.58455132919e-05
-1.49735460607e-07
1.58320604954e-05
-1.59927541287e-07
1.58162132242e-05
-1.69215441035e-07
1.57979988464e-05
-1.77519530621e-07
1.57775012697e-05
-1.84770943079e-07
1.57548580453e-05
-1.9091804626e-07
1.57302538182e-05
-1.95929772924e-07
1.57039151602e-05
-1.99785453316e-07
-2.02357419997e-07
1.56761274419e-05
1.41485510805e-05
-2.01517025594e-08
1.41482340436e-05
-3.90364241212e-08
1.41474443127e-05
-5.5875286282e-08
1.41457738196e-05
-7.09051500164e-08
1.414288359e-05
-8.44877142109e-08
1.41385278779e-05
-9.69449386867e-08
1.41325172064e-05
-1.0846487053e-07
1.41247072461e-05
-1.19141242618e-07
1.4115000552e-05
-1.29013207277e-07
1.41033460884e-05
-1.38080857046e-07
1.40897366871e-05
-1.46318087616e-07
1.4074207775e-05
-1.53686395308e-07
1.40568348579e-05
-1.60146575279e-07
1.40377307518e-05
-1.65666712245e-07
1.40170403206e-05
-1.70227591551e-07
1.39949352474e-05
-1.73824592989e-07
1.39716088631e-05
-1.76459058288e-07
-1.78039606931e-07
1.39472911409e-05
1.26047578907e-05
-1.98648121137e-08
1.26042602885e-05
-3.85387025554e-08
1.26032336274e-05
-5.48485235399e-08
1.26012101495e-05
-6.88815279609e-08
1.25978947883e-05
-8.11722330978e-08
1.25931216614e-05
-9.21716759183e-08
1.25867712769e-05
-1.02114363089e-07
1.25787645717e-05
-1.11134427896e-07
1.25690670817e-05
-1.19315578179e-07
1.25576833103e-05
-1.26696989037e-07
1.25446514812e-05
-1.3328614398e-07
1.25300404002e-05
-1.39075227908e-07
1.25139467318e-05
-1.4405280856e-07
1.24964913158e-05
-1.48211220101e-07
1.24778150415e-05
-1.51551236887e-07
1.24580742297e-05
-1.54083723554e-07
1.24374378253e-05
-1.5582258675e-07
-1.56700352677e-07
1.24160985943e-05
1.12294487971e-05
-1.94986167906e-08
1.12290781387e-05
-3.81679723759e-08
1.1228226636e-05
-5.3996931107e-08
1.12262807796e-05
-6.69356121498e-08
1.12230073994e-05
-7.78987565665e-08
1.12183156877e-05
-8.74798807567e-08
1.12121319631e-05
-9.59305267565e-08
1.12044213671e-05
-1.03423720294e-07
1.11951926687e-05
-1.10086791317e-07
1.1184485828e-05
-1.15990047729e-07
1.11723649045e-05
-1.21165110562e-07
1.11589151625e-05
-1.2562539879e-07
1.11442403982e-05
-1.29377926861e-07
1.11284594276e-05
-1.32430188561e-07
1.11117028556e-05
-1.34794546785e-07
1.10941094199e-05
-1.36490254967e-07
1.10758250341e-05
-1.37538098618e-07
-1.37886852578e-07
1.10570115411e-05
1.00041229418e-05
-1.89964711936e-08
1.00041127165e-05
-3.81576929858e-08
1.00036973811e-05
-5.35815482783e-08
1.00020499759e-05
-6.52881300975e-08
9.99906144695e-06
-7.49101708239e-08
9.99471020126e-06
-8.31285645266e-08
9.9889499031e-06
-9.01701763511e-08
9.98177990076e-06
-9.62536634657e-08
9.97324058354e-06
-1.01547381342e-07
9.96339363443e-06
-1.06143020388e-07
9.95231640771e-06
-1.1008779884e-07
9.9401004574e-06
-1.13409361716e-07
9.92684919276e-06
-1.16126584559e-07
9.91267516481e-06
-1.18256054528e-07
9.89769768775e-06
-1.19817001118e-07
9.88204174584e-06
-1.20834204987e-07
9.86584037462e-06
-1.21336699742e-07
-1.21291182368e-07
9.84924480371e-06
8.91229054534e-06
-1.81813540253e-08
8.91283598007e-06
-3.87030976876e-08
8.91295916081e-06
-5.37046911602e-08
8.91166727108e-06
-6.3996220847e-08
8.90905860058e-06
-7.23014538642e-08
8.90514443909e-06
-7.92143651784e-08
8.89989240896e-06
-8.49181014041e-08
8.89333670223e-06
-8.96979037833e-08
8.88554410801e-06
-9.37547571165e-08
8.8765900067e-06
-9.71888589233e-08
8.86655734277e-06
-1.0005507858e-07
8.85553734075e-06
-1.02389291689e-07
8.84362769931e-06
-1.04216872257e-07
8.83093015745e-06
-1.055584342e-07
8.81754811206e-06
-1.06434871724e-07
8.80358499687e-06
-1.06871026465e-07
8.78914676071e-06
-1.06898366065e-07
-1.06493080529e-07
8.77434869141e-06
7.93932677982e-06
-1.6835266555e-08
7.9407095843e-06
-4.00858726817e-08
7.94127795859e-06
-5.42730435446e-08
7.94026113473e-06
-6.29793603809e-08
7.93804531774e-06
-7.00856091934e-08
7.93459355038e-06
-7.57625699889e-08
7.9298671779e-06
-8.01917118598e-08
7.92392684081e-06
-8.3757548397e-08
7.91685554267e-06
-8.66834161554e-08
7.90873580204e-06
-8.90690839766e-08
7.89965312363e-06
-9.09723603843e-08
7.88969728176e-06
-9.24334117794e-08
7.87896081477e-06
-9.34803523984e-08
7.86753699691e-06
-9.41345617344e-08
7.85551816682e-06
-9.44159701527e-08
7.84299578346e-06
-9.4348572689e-08
7.83007059003e-06
-9.39731004039e-08
-9.3303722457e-08
7.81688132135e-06
7.07143323519e-06
-1.39342929582e-08
7.07431072649e-06
-4.29633494935e-08
7.07509805063e-06
-5.50603490384e-08
7.0741533017e-06
-6.20346029549e-08
7.07219001173e-06
-6.81222957138e-08
7.06907448537e-06
-7.26470242166e-08
7.06477696388e-06
-7.58941687715e-08
7.05937298874e-06
-7.83535569739e-08
7.05294033776e-06
-8.02507543544e-08
7.04555327374e-06
-8.16819964169e-08
7.03729060503e-06
-8.27096655385e-08
7.02823582054e-06
-8.33785897607e-08
7.01847453929e-06
-8.37190357275e-08
7.0080915051e-06
-8.37514789051e-08
6.99716620464e-06
-8.34906264639e-08
6.98576619524e-06
-8.29485069813e-08
6.97393997933e-06
-8.21468142421e-08
-8.10736492288e-08
6.96170999553e-06
6.29579043371e-06
-7.2102067362e-09
6.30150500838e-06
-4.86778878636e-08
6.30277012614e-06
-5.63254714716e-08
6.3021902981e-06
-6.14547646836e-08
6.30045037095e-06
-6.63823531927e-08
6.29735567046e-06
-6.95523054539e-08
6.29302653917e-06
-7.1565032232e-08
6.28762408755e-06
-7.29510689767e-08
6.28125436424e-06
-7.38810399569e-08
6.27400055547e-06
-7.44281728117e-08
6.26594234256e-06
-7.46514299385e-08
6.25715962692e-06
-7.45958574766e-08
6.24773262276e-06
-7.42919749794e-08
6.23774046269e-06
-7.3759308548e-08
6.22725795242e-06
-7.30080816259e-08
6.21634934481e-06
-7.20398550687e-08
6.2050675856e-06
-7.08649912169e-08
-6.94760706601e-08
6.19347007144e-06
5.59996753795e-06
7.72389258436e-09
5.6073143445e-06
-5.6024665894e-08
5.60812617088e-06
-5.7137300037e-08
5.60831147577e-06
-6.16400743906e-08
5.60714007134e-06
-6.52109356912e-08
5.60412043499e-06
-6.65326578998e-08
5.59945977062e-06
-6.69043384076e-08
5.59339419924e-06
-6.68854821438e-08
5.58609809948e-06
-6.65849501341e-08
5.57771697671e-06
-6.6047050668e-08
5.56838060286e-06
-6.53150470067e-08
5.55820759984e-06
-6.44228053577e-08
5.5473087706e-06
-6.33931203866e-08
5.53578885188e-06
-6.22393712939e-08
5.5237448051e-06
-6.0964023586e-08
5.51125416257e-06
-5.95491813731e-08
5.49833277068e-06
-5.79435616474e-08
-5.58920804561e-08
5.48474885156e-06
5.00790723894e-06
2.1250651938e-09
5.00220332235e-06
-5.03207167833e-08
4.99081810876e-06
-4.57520904241e-08
4.98033439771e-06
-5.11563679983e-08
4.9688402472e-06
-5.3716772743e-08
4.95597853081e-06
-5.36709230999e-08
4.94174553433e-06
-5.26713148009e-08
4.92617655627e-06
-5.131648847e-08
4.90936926334e-06
-4.97776702977e-08
4.89146299396e-06
-4.81407847267e-08
4.87261198016e-06
-4.64640118985e-08
4.85297269632e-06
-4.47834804951e-08
4.83269897123e-06
-4.31193624596e-08
4.81194032013e-06
-4.14807110644e-08
4.7908427273e-06
-3.98664190485e-08
4.76955168874e-06
-3.82581185565e-08
4.74819977331e-06
-3.65916044238e-08
-3.45019715089e-08
4.7268097155e-06
4.45867512623e-06
4.40835440914e-06
4.36260231802e-06
4.31144595132e-06
4.2577291805e-06
4.20405826074e-06
4.15138694875e-06
4.10007045826e-06
4.05029278705e-06
4.00215200482e-06
3.95568800018e-06
3.91090452661e-06
3.86778516636e-06
3.82630445695e-06
3.78643804269e-06
3.74817993258e-06
3.7115883418e-06
3.6770863827e-06
7.92880376772e-07
-7.9287839205e-07
9.60980248287e-07
-1.68097271287e-07
1.01434611735e-06
-5.3363935118e-08
1.04584249555e-06
-3.1494617664e-08
1.08903183083e-06
-4.31876230996e-08
1.13591019074e-06
-4.68766045154e-08
1.18302596175e-06
-4.71140337614e-08
1.22933990465e-06
-4.63121654225e-08
1.27442758486e-06
-4.50859368797e-08
1.31801371874e-06
-4.35843643358e-08
1.35996801643e-06
-4.19525772045e-08
1.40027734648e-06
-4.03075926658e-08
1.43898626584e-06
-3.8707237219e-08
1.47615973024e-06
-3.71717668065e-08
1.51186486634e-06
-3.57034879414e-08
1.54615934144e-06
-3.4292802462e-08
1.57908106284e-06
-3.29200771081e-08
1.610639524e-06
-3.15567689733e-08
1.64080575055e-06
-3.01645243426e-08
1.66949920383e-06
-2.86916618449e-08
1.69656734542e-06
-2.7066283054e-08
1.72175353837e-06
-2.51841803024e-08
1.74464201642e-06
-2.28863119533e-08
1.76456049394e-06
-1.99160567416e-08
1.7803909395e-06
-1.58276601608e-08
1.7902129041e-06
-9.81852512986e-09
1.79064790247e-06
-4.31132895068e-10
1.77276152407e-06
1.78905393217e-08
7.53812030347e-08
1.69738396323e-06
9.07273334655e-07
-9.07271968631e-07
1.20378823351e-06
-2.96513612011e-07
1.53597731713e-06
-3.32187792058e-07
1.13024650318e-06
-3.87146369993e-07
1.21214015402e-06
-2.4998955286e-07
1.31182381385e-06
-1.53046352774e-07
1.39155667736e-06
-1.11226268874e-07
1.45330822228e-06
-1.0493800596e-07
1.50806585727e-06
-1.01633036219e-07
1.55842778466e-06
-9.7474779462e-08
1.60571097999e-06
-9.35941314529e-08
1.65068868392e-06
-9.00624400988e-08
1.69378741046e-06
-8.6681848925e-08
1.73526088401e-06
-8.34248469972e-08
1.77527877655e-06
-8.03242451623e-08
1.81396374401e-06
-7.73910083696e-08
1.85140776138e-06
-7.46145511972e-08
1.88767860266e-06
-7.19731385393e-08
1.92282172812e-06
-6.94346922061e-08
1.95685864582e-06
-6.69557900756e-08
1.9897830444e-06
-6.44798990792e-08
2.02155364692e-06
-6.19338662166e-08
2.05208343484e-06
-5.92200947363e-08
2.08122230428e-06
-5.62037686861e-08
2.10872987221e-06
-5.26902221086e-08
2.13423003016e-06
-4.83848561556e-08
2.15713236463e-06
-4.28165636135e-08
2.17648645078e-06
-3.51796699138e-08
2.19067354593e-06
-2.40031077924e-08
2.19666170605e-06
-6.41641753255e-09
2.18876459239e-06
2.57906076309e-08
9.58545538174e-08
2.16829391346e-06
9.7844169668e-07
-9.78441057932e-07
1.2125175252e-06
-2.34075101514e-07
1.40732038051e-06
-1.94802059365e-07
1.76016809521e-06
-3.52846830225e-07
1.32695518943e-06
-4.74058248812e-07
1.42832789083e-06
-3.97885395672e-07
1.48448572748e-06
-3.88344646508e-07
1.47796182976e-06
-3.80621552186e-07
1.53275967411e-06
-3.04786518759e-07
1.6072457554e-06
-2.27531606119e-07
1.67725187497e-06
-1.81231594908e-07
1.73496418733e-06
-1.62649518317e-07
1.78565519749e-06
-1.52323252247e-07
1.83215334512e-06
-1.43972116862e-07
1.87570282961e-06
-1.37142808763e-07
1.91706609332e-06
-1.31424886128e-07
1.95673967741e-06
-1.26354621162e-07
1.99503772275e-06
-1.21722077232e-07
2.03216121782e-06
-1.1744693314e-07
2.06824259968e-06
-1.13471584456e-07
2.10337011585e-06
-1.09741268774e-07
2.13760018856e-06
-1.06202413398e-07
2.17096335678e-06
-1.02797063856e-07
2.20346598211e-06
-9.94576115692e-08
2.23508854153e-06
-9.61016422497e-08
2.26578054077e-06
-9.2625024708e-08
2.29545169761e-06
-8.8890374641e-08
2.32395789774e-06
-8.47090403731e-08
2.35107944798e-06
-7.98107709724e-08
2.37648696037e-06
-7.37912768715e-08
2.39968715563e-06
-6.60155326327e-08
2.41993721362e-06
-5.54282926438e-08
2.43611003321e-06
-4.01741068959e-08
2.44652279165e-06
-1.6827033001e-08
2.4498279802e-06
2.24876685875e-08
9.31458397758e-08
2.45253868971e-06
1.08713282864e-06
-1.08713207113e-06
1.35313643812e-06
-2.66003018578e-07
1.57090335442e-06
-2.17766442043e-07
1.94942331807e-06
-3.78519533001e-07
1.44014944496e-06
-4.69166737429e-07
1.55661293997e-06
-3.50538051881e-07
1.68306181149e-06
-3.21250308329e-07
1.7240742887e-06
-3.93858650612e-07
1.70517159392e-06
-4.55154870631e-07
1.74649605157e-06
-4.39209158904e-07
1.77987945399e-06
-4.2172746428e-07
1.79373634498e-06
-3.94477659296e-07
1.83069465475e-06
-3.41744091942e-07
1.88490065601e-06
-2.81736871211e-07
1.94149207722e-06
-2.37822316938e-07
1.99211536609e-06
-2.13272071557e-07
2.03752907474e-06
-1.97736241938e-07
2.07937258154e-06
-1.85814859028e-07
2.11854739264e-06
-1.7631687329e-07
2.15568672792e-06
-1.68563432948e-07
2.19127380948e-06
-1.61940938561e-07
2.22564537101e-06
-1.56092838434e-07
2.25902610891e-06
-1.50826899753e-07
2.29156520376e-06
-1.46009875527e-07
2.32335979881e-06
-1.41535090051e-07
2.35446894701e-06
-1.37310754594e-07
2.38492165135e-06
-1.33248986794e-07
2.41472085821e-06
-1.29255996541e-07
2.44384375089e-06
-1.25223727333e-07
2.47223886977e-06
-1.21019280424e-07
2.49981974184e-06
-1.16470378933e-07
2.52645460226e-06
-1.11342954e-07
2.55195080322e-06
-1.05305990508e-07
2.57603266029e-06
-9.78720378768e-08
2.59831174016e-06
-8.82934310756e-08
2.6182557451e-06
-7.53708991134e-08
2.63518287013e-06
-5.7099557049e-08
2.6483917151e-06
-3.0033903866e-08
2.65854685495e-06
1.23345406151e-08
7.95146223079e-08
2.67217988993e-06
1.19224425025e-06
-1.19224387856e-06
1.49015624455e-06
-2.97911496704e-07
1.7330170115e-06
-2.42860206889e-07
2.1474093999e-06
-4.14391792349e-07
1.57536841231e-06
-5.15090596647e-07
1.69437613156e-06
-3.85010286314e-07
1.82275869532e-06
-3.4614862836e-07
1.85431597387e-06
-4.10076408924e-07
1.83538348847e-06
-4.50233884983e-07
1.89963643181e-06
-4.14790559381e-07
1.98086953412e-06
-4.02482961743e-07
2.0193039268e-06
-4.32292577242e-07
2.02415824781e-06
-4.60008600815e-07
2.0426976182e-06
-4.57747966029e-07
2.06215536491e-06
-4.4118451236e-07
2.07950737866e-06
-4.11829113782e-07
2.10782103514e-06
-3.70057190753e-07
2.14810218458e-06
-3.22017507288e-07
2.19276641971e-06
-2.82486027046e-07
2.23536125734e-06
-2.55866401739e-07
2.2748072696e-06
-2.37181722998e-07
2.31164371116e-06
-2.2265078261e-07
2.34632176154e-06
-2.10994381884e-07
2.37923625769e-06
-2.01477401396e-07
2.4107554509e-06
-1.93459583832e-07
2.44117398553e-06
-1.86510841459e-07
2.47070841429e-06
-1.80360780816e-07
2.4995134669e-06
-1.74814397925e-07
2.52769617939e-06
-1.69717258441e-07
2.55532558291e-06
-1.64939629598e-07
2.58243955201e-06
-1.60362411896e-07
2.60904882699e-06
-1.55864736177e-07
2.63513839378e-06
-1.51312736027e-07
2.66066614817e-06
-1.46546471878e-07
2.68555905193e-06
-1.41362683021e-07
2.70970651956e-06
-1.35489796587e-07
2.73295120842e-06
-1.28549995831e-07
2.7550780664e-06
-1.19998156911e-07
2.77580612098e-06
-1.0902065006e-07
2.79479854563e-06
-9.43623291892e-08
2.81173419064e-06
-7.40339219053e-08
2.8265489199e-06
-4.48470656994e-08
2.84069244472e-06
-1.80734108481e-09
6.0551737497e-08
2.85965679594e-06
1.29764806679e-06
-1.29764770093e-06
1.62691827908e-06
-3.29269928577e-07
1.89374440565e-06
-2.66825891679e-07
2.34289301143e-06
-4.49148342182e-07
1.71259312834e-06
-5.61943723388e-07
1.83696958211e-06
-4.22287549916e-07
1.97242821023e-06
-3.78318375077e-07
2.0028548229e-06
-4.44817925135e-07
1.97593759613e-06
-4.88172943795e-07
2.03889972807e-06
-4.47972053755e-07
2.12032833892e-06
-4.27576933321e-07
2.1583236995e-06
-4.48071525101e-07
2.1716418617e-06
-4.63551695095e-07
2.21135233711e-06
-4.5450064951e-07
2.26018571871e-06
-4.51315934238e-07
2.29062064775e-06
-4.6272699725e-07
2.30345849719e-06
-4.72845970813e-07
2.31615877588e-06
-4.70447744354e-07
2.32914594752e-06
-4.541713155e-07
2.34452367974e-06
-4.27206301205e-07
2.36657523421e-06
-3.92108200263e-07
2.39690060752e-06
-3.52342373149e-07
2.43164102171e-06
-3.17225911145e-07
2.46636256377e-06
-2.90587433811e-07
2.49955542955e-06
-2.70374042199e-07
2.53111000733e-06
-2.54204829186e-07
2.56112084399e-06
-2.41004647568e-07
2.58975335856e-06
-2.30109362675e-07
2.61722681425e-06
-2.20932448231e-07
2.6437517509e-06
-2.13035208844e-07
2.66950208652e-06
-2.06110511849e-07
2.69461382315e-06
-1.99925555278e-07
2.71918887069e-06
-1.94291692205e-07
2.74329870803e-06
-1.89048878631e-07
2.76698793453e-06
-1.84051012552e-07
2.79027664746e-06
-1.79152844067e-07
2.81316151443e-06
-1.74196951981e-07
2.83561506893e-06
-1.68999385831e-07
2.8575836786e-06
-1.63330592232e-07
2.87898408897e-06
-1.56889500444e-07
2.89969981385e-06
-1.49264932896e-07
2.91957970327e-06
-1.3987722588e-07
2.93844629701e-06
-1.27886304769e-07
2.95613359249e-06
-1.12048564727e-07
2.97260075321e-06
-9.04997546124e-08
2.98825990419e-06
-6.05046538531e-08
3.00460129492e-06
-1.81471192865e-08
3.92592729569e-08
3.02589520643e-06
1.41554277245e-06
-1.41554258921e-06
1.72616748329e-06
-3.10624471258e-07
1.86363367764e-06
-1.37465884556e-07
2.08714820251e-06
-2.23514224947e-07
2.5548058876e-06
-4.67657327043e-07
1.86401866322e-06
-6.06860211709e-07
1.99101481329e-06
-4.56265831721e-07
2.13199071637e-06
-4.07801572442e-07
2.16118012992e-06
-4.78337528117e-07
2.12662857886e-06
-5.27391900433e-07
2.18989496045e-06
-4.85553598089e-07
2.27388027868e-06
-4.62303324063e-07
2.31163141014e-06
-4.82568704559e-07
2.32166854192e-06
-4.98209690907e-07
2.35979629844e-06
-4.8609949716e-07
2.40901484604e-06
-4.76795214324e-07
2.44252488425e-06
-4.81581243663e-07
2.464977294e-06
-4.86003829034e-07
2.49390870043e-06
-4.83431740797e-07
2.52486282082e-06
-4.82269711342e-07
2.54723085898e-06
-4.8509471763e-07
2.56023712971e-06
-4.85851783884e-07
2.57007101087e-06
-4.80281190389e-07
2.57967721355e-06
-4.63776972243e-07
2.59179146762e-06
-4.39320146281e-07
2.6085224913e-06
-4.08838847435e-07
2.63114105269e-06
-3.74960555516e-07
2.6576348844e-06
-3.43719389964e-07
2.68508496718e-06
-3.18037146761e-07
2.71209665269e-06
-2.97385377112e-07
2.73827288093e-06
-2.80380686567e-07
2.76349287523e-06
-2.66224287337e-07
2.78775615824e-06
-2.54372270273e-07
2.81115072483e-06
-2.44326654654e-07
2.83379634608e-06
-2.35680450897e-07
2.85580929638e-06
-2.28123098367e-07