/*--------------------------------*- C++ -*----------------------------------*\
| =========                 |                                                 |
| \\      /  F ield         | OpenFOAM: The Open Source CFD Toolbox           |
|  \\    /   O peration     | Version:  2.3.1                                 |
|   \\  /    A nd           | Web:      www.OpenFOAM.org                      |
|    \\/     M anipulation  |                                                 |
\*---------------------------------------------------------------------------*/
FoamFile
{
    version     2.0;
    format      ascii;
    class       volVectorField;
    location    "100";
    object      U;
}
// * * * * * * * * * * * * * * * * * * * * * * * * * * * * * * * * * * * * * //

dimensions      [0 1 -1 0 0 0 0];

internalField   nonuniform List<vector> 
10011
(
(9.84067696943 -1.23875671077 -1.28992208333e-21)
(9.74364005248 -0.732073909625 -2.33674664023e-21)
(9.54913445248 -0.468316540141 -2.80478289345e-21)
(9.34577135398 -0.308900649719 -7.26940401923e-21)
(9.16076008962 -0.208060438949 1.48491556159e-21)
(8.99469961245 -0.1424044018 6.27865556817e-21)
(8.84640950231 -0.0985824267097 -3.23210130219e-20)
(8.71581566619 -0.0688739592594 0)
(8.60309351674 -0.04864034601 0)
(8.50859550034 -0.0350013405048 0)
(8.43318786925 -0.0261663253467 5.98452270961e-20)
(8.37864715718 -0.021090728267 6.3296013816e-20)
(8.3482334392 -0.0193297424492 -6.38742361526e-20)
(8.34770754554 -0.0214276460367 -2.71862058068e-19)
(8.39127920996 -0.0296775157448 0)
(8.50953887321 -0.0510921805887 0)
(8.76466174613 -0.101662196698 -1.27308901096e-18)
(9.57461030005 0.228123900417 -2.59811805291e-18)
(10.034367797 0.446605605465 -9.71802156488e-22)
(10.027467728 0.425156405546 3.10181973825e-21)
(10.0005561687 0.337447783299 1.09358805693e-21)
(9.96574968272 0.267050708001 4.65309962291e-21)
(9.9334326736 0.212520402328 -1.43989770231e-20)
(9.90327564815 0.170281111947 6.22644591283e-23)
(9.87512503328 0.13768073485 1.54119531524e-20)
(9.8503830093 0.112119290216 0)
(9.83087052881 0.0913909739373 0)
(9.81852243981 0.0737385041032 8.96248512388e-20)
(9.81560589908 0.057673601103 -1.38839847165e-19)
(9.82507801621 0.0417325561441 0)
(9.8510783885 0.0240522089206 0)
(9.90099392321 0.00144724630246 -2.06099641864e-19)
(9.98388892567 -0.0319697879563 0)
(10.1136309304 -0.0890622599649 -4.69931829847e-19)
(10.3043030767 -0.209337692965 1.40822446874e-18)
(10.5602051656 -0.530387182045 2.02450819296e-18)
(9.99377436892 0.0252596713362 1.26021947199e-21)
(10.0069653835 -0.0121394174617 -3.0734451948e-21)
(10.0295345751 -0.0329342863165 1.72776828359e-21)
(10.0463512704 -0.0300694445975 5.58983156009e-21)
(10.0625122267 -0.0213742872551 7.11288755361e-23)
(10.0792719256 -0.0132353921589 3.28529753856e-20)
(10.0969334508 -0.00700499265546 3.41541546057e-20)
(10.11667295 -0.00321135388208 5.31892938089e-20)
(10.139959107 -0.00220097076353 -1.80740358684e-20)
(10.1683274562 -0.00428985487954 -3.8287724322e-20)
(10.2035717747 -0.00997233940148 1.16596939679e-19)
(10.2479960915 -0.0201970456314 1.61253438061e-19)
(10.3049259979 -0.0368650169317 1.70118268868e-19)
(10.3779084143 -0.0634879248411 4.91778590068e-23)
(10.4717048118 -0.106792812012 5.42877093325e-19)
(10.5923295478 -0.180839493736 -3.61420037958e-19)
(10.7378763092 -0.315280536428 -7.58734862564e-19)
(10.8806496988 -0.551690394447 1.53895232825e-18)
(10.0009013755 0.0175374213633 0)
(10.0170969112 0.038686094438 2.32334010933e-21)
(10.0423880559 0.0482747809754 5.2615683899e-21)
(10.0623837145 0.0547786148395 -5.71838931259e-21)
(10.0820866677 0.0565204966639 2.76583549482e-20)
(10.1037832328 0.0539336253596 -2.92069067685e-20)
(10.1277499495 0.0484702664048 -2.03935784857e-20)
(10.1546709125 0.0408565970135 -3.56128861308e-20)
(10.1855203901 0.0311593117381 2.93427153098e-20)
(10.2213589622 0.0190213406844 1.16249089436e-22)
(10.2634433224 0.00364145972297 -9.463304191e-20)
(10.3133597407 -0.0164278712532 -6.58681213587e-20)
(10.3729343341 -0.0435359625542 0)
(10.4444829102 -0.0817029549314 -1.37467466811e-19)
(10.5301538384 -0.138093508456 -2.93968926292e-19)
(10.6297828788 -0.225352903128 -1.52114015791e-19)
(10.733504617 -0.364472847124 6.32879015462e-19)
(10.8061377122 -0.577730390756 -1.29927207727e-18)
(10.0032693653 0.0157429637777 0)
(10.0192006145 0.0344981679779 4.91642621185e-22)
(10.0417670305 0.0368439387815 -5.25057761106e-22)
(10.0614637243 0.0350919202531 6.91041684678e-21)
(10.0817668144 0.0316992446985 -7.41100853261e-21)
(10.1045425728 0.026551494502 -2.08625624009e-20)
(10.1298942351 0.0198819598922 2.19622564804e-20)
(10.1582303594 0.0116113492428 -4.60280411931e-20)
(10.1902812002 0.00126614918176 -2.44218927457e-20)
(10.2268652925 -0.0119253542425 5.01324968011e-20)
(10.2689045369 -0.0290686262513 7.85052543887e-20)
(10.3174633395 -0.0517947580443 -1.07995889712e-19)
(10.3736822073 -0.0826939523622 0)
(10.4384903322 -0.125850983347 2.24078948922e-21)
(10.5117285047 -0.187715691744 0)
(10.589916534 -0.277987188489 2.48647026872e-19)
(10.6614771882 -0.409203682025 2.57297077607e-19)
(10.6980163053 -0.58804549056 -2.50411165703e-19)
(10.0035519032 0.015105916917 0)
(10.0179793898 0.0289429919216 -4.48979004607e-21)
(10.0385223449 0.0305804465917 -7.60268716527e-21)
(10.0581783313 0.0287557321716 -7.02573659215e-21)
(10.0786971499 0.0255292168613 -4.25014567768e-21)
(10.1015101425 0.020327519677 2.21354560246e-20)
(10.126783772 0.0130077044668 -4.64708452995e-20)
(10.1548510721 0.00340654000883 4.84179517638e-20)
(10.1862890533 -0.00895968541778 -6.0777974696e-20)
(10.2217328183 -0.0248479797183 4.19325973985e-20)
(10.261821934 -0.045391926968 2.24704514173e-20)
(10.3071690551 -0.0722809526895 1.14526765278e-21)
(10.3581978321 -0.108012493584 9.38153991171e-20)
(10.4147241589 -0.15624685786 -4.50276681383e-20)
(10.475066607 -0.222155766013 1.96317158409e-19)
(10.5343173194 -0.312334445913 -9.76479161963e-20)
(10.5818581431 -0.433120317089 2.07725099158e-19)
(10.5972236702 -0.583474396592 -1.03327998555e-19)
(10.0031613428 0.0118436514696 0)
(10.0158596223 0.0217497468072 3.32566923239e-21)
(10.0346066855 0.0231329774562 4.31940621483e-21)
(10.0538347213 0.020856421206 -2.69461481846e-21)
(10.0740910713 0.0166130399702 9.29428285036e-21)
(10.0964428552 0.0100811586629 -3.89520993277e-21)
(10.1211079916 0.00111205082645 4.02205326965e-21)
(10.1483351692 -0.0104836915879 0)
(10.1785524481 -0.0251713171252 3.43806372343e-20)
(10.2121816538 -0.0437494831406 0)
(10.249571245 -0.0673716741935 7.33286999483e-20)
(10.2909084596 -0.0976621069522 -3.84541035869e-20)
(10.3360061443 -0.136876439672 3.78472037668e-20)
(10.3838851693 -0.188034197674 1.62616887544e-19)
(10.4320642748 -0.254887931243 -2.51769199249e-19)
(10.475476099 -0.341360302659 2.5628314529e-19)
(10.5055739481 -0.449724438508 -1.7635037695e-19)
(10.5085395018 -0.575560147744 -1.71395095123e-19)
(10.0028441277 0.00900773244695 8.72716532785e-22)
(10.0141109191 0.0163408773835 0)
(10.0312373518 0.0171098386076 0)
(10.0496598446 0.0141121078902 7.81452102005e-21)
(10.0693233952 0.0088294683477 -1.61965889392e-20)
(10.0909757096 0.00113790019878 -4.22798250376e-21)
(10.1147984206 -0.00914862788126 2.17465848257e-20)
(10.1409585333 -0.0222690479848 -2.70784798406e-20)
(10.1697226032 -0.0387376081748 -1.86986991378e-20)
(10.2013287247 -0.0593521018957 -9.56705290099e-21)
(10.2358846446 -0.0852215421185 -4.02366021279e-20)
(10.2732539522 -0.117834021767 2.08466258175e-20)
(10.3128428186 -0.159122086 -1.49601431981e-19)
(10.353243391 -0.21144882213 4.33574757942e-20)
(10.3917274544 -0.2773859618 0)
(10.4236314236 -0.359036304227 4.64647998242e-20)
(10.4422753788 -0.456512080885 -4.6431345822e-20)
(10.4380153179 -0.564568715165 1.41699858945e-19)
(10.0025944612 0.00660810450931 -8.27041395886e-22)
(10.0126639056 0.0117654973944 0)
(10.028309539 0.0115902980042 0)
(10.0457913431 0.0077874120176 -9.15835640333e-21)
(10.0646995175 0.00154637818738 9.40678705853e-21)
(10.0855099334 -0.00719740872641 0)
(10.1083553898 -0.0186512526855 4.01176563815e-21)
(10.1333090421 -0.0331092511961 -4.0126958755e-21)
(10.1605027439 -0.0510880186471 0)
(10.1900121529 -0.0733550360451 0)
(10.2217461715 -0.100937800694 -7.12930348296e-20)
(10.2553254024 -0.135148371602 0)
(10.2898903884 -0.177580396777 0)
(10.3238236297 -0.230008714969 -3.75810596326e-20)
(10.354423825 -0.294091958338 -1.17023608363e-19)
(10.3776192442 -0.370738313666 0)
(10.388268832 -0.458943611564 0)
(10.3795892233 -0.553585918232 3.97409093373e-20)
(10.0023413939 0.00416707726674 0)
(10.0112239454 0.00703102947051 0)
(10.0252901016 0.00561385833651 -4.33851690378e-21)
(10.041566289 0.000820661304941 -2.66077866803e-21)
(10.059406994 -0.00650221920212 0)
(10.0790450314 -0.0163971928344 3.66878504802e-21)
(10.1005331975 -0.0291036842234 7.56824514674e-21)
(10.1238521425 -0.044941003436 1.16536912532e-20)
(10.1489930427 -0.064412342311 0)
(10.175866381 -0.0882252845985 0)
(10.2041936157 -0.117282399474 6.59541941849e-20)
(10.2333928818 -0.15266655267 -3.34751456517e-20)
(10.2624274648 -0.195585230125 0)
(10.2896217197 -0.247220696272 7.05107217539e-20)
(10.3125025206 -0.308425963368 3.66272991446e-20)
(10.3277539038 -0.379214602767 3.6040090758e-20)
(10.3316731683 -0.457981713234 -7.21552879053e-20)
(10.3197514114 -0.540114180282 3.45379080787e-20)
(10.0020761959 0.00166529393631 1.94720212116e-22)
(10.0098065021 0.00214969520437 -2.03301244868e-22)
(10.0222456874 -0.000745621420489 4.14046285711e-21)
(10.0370779241 -0.00671690288729 2.52978248811e-21)
(10.0535366112 -0.0152447061006 0)
(10.0716353724 -0.0263883406952 -6.96765015649e-21)
(10.0913392861 -0.0403969601113 0)
(10.112534156 -0.0576002495865 0)
(10.1350761876 -0.0784654711406 7.20648731921e-21)
(10.1587235076 -0.103607297432 7.38240607617e-21)
(10.1830414092 -0.133762272733 -4.53698999319e-20)
(10.2073092624 -0.169744411137 3.08571772523e-20)
(10.2304201121 -0.212358809639 1.56410398322e-20)
(10.2507886101 -0.262241633093 1.55174290189e-20)
(10.2663215467 -0.319603344171 2.59749770974e-22)
(10.2745121872 -0.383878572438 3.18227834639e-20)
(10.2728933364 -0.453279910082 6.35181173095e-20)
(10.25860339 -0.523925728156 -9.49901839707e-20)
(10.0018025964 -0.000867801855604 0)
(10.0084221026 -0.00279823580069 0)
(10.0192128858 -0.00736812915142 1.54350184644e-21)
(10.0323934433 -0.0146811846755 -3.90981884855e-21)
(10.0471618542 -0.024509743369 -8.02642235681e-22)
(10.0633572681 -0.0369423880149 1.59735751879e-21)
(10.0808472637 -0.0522293072601 0)
(10.0994258503 -0.0706891469722 6.55628257056e-21)
(10.1188317304 -0.0927282653832 -6.6815797701e-21)
(10.1387001787 -0.118838506586 -6.70405131464e-21)
(10.1584909639 -0.149561031555 1.37248206434e-20)
(10.1774251357 -0.185426637211 1.36656417553e-20)
(10.1944358984 -0.226862949681 1.3768495267e-20)
(10.2081494965 -0.27405684167 -1.42718191695e-20)
(10.2169342964 -0.326773673001 1.37624176937e-20)
(10.2190437881 -0.384159011588 -1.36870659372e-20)
(10.2129818143 -0.444529705666 -4.26492314366e-20)
(10.1969760219 -0.504795883468 1.35612863772e-20)
(10.0015251662 -0.00337913042974 -3.3527730767e-22)
(10.0070719244 -0.00770683537683 3.5185260901e-22)
(10.0161991737 -0.0140861649958 -3.56700208108e-22)
(10.0275436437 -0.022858136076 2.14495657861e-21)
(10.0403332772 -0.0340203941793 -7.2927406175e-22)
(10.0542794063 -0.0477033003398 1.44973838461e-21)
(10.0691553055 -0.0641465084111 0)
(10.0846747737 -0.0836339323741 -5.95393246024e-21)
(10.1004881727 -0.106488677311 0)
(10.1161518888 -0.133060411041 6.05475793127e-21)
(10.1310831278 -0.163686203459 -6.04376400424e-21)
(10.1445277708 -0.198631127707 -1.23312624218e-20)
(10.1555519289 -0.238009426811 -2.65903919099e-22)
(10.1630674024 -0.281687703748 0)
(10.1659104924 -0.32918225558 -2.49979584472e-20)
(10.1629730746 -0.379575071764 1.27127576112e-20)
(10.1534560288 -0.431442475867 1.22325775483e-20)
(10.1362450208 -0.482426932155 -3.5812843945e-20)
(10.0012461913 -0.00580127865585 6.07035552628e-22)
(10.0057477329 -0.0124470414667 -3.15816747529e-22)
(10.0131959031 -0.0206731331592 -2.23148498108e-21)
(10.02254792 -0.0309319719715 3.55165902536e-24)
(10.0330999096 -0.0433738872977 3.22919966709e-21)
(10.0444856079 -0.0581656672759 -1.2964831386e-21)
(10.0564037903 -0.0755239008893 -2.62665027012e-21)
(10.0685114376 -0.0956777506543 5.21621564298e-21)
(10.0804101661 -0.118853186295 2.63683059127e-21)
(10.0916307715 -0.145255106573 5.33388072856e-21)
(10.1016124136 -0.175032908663 -1.59587545882e-20)
(10.1096957535 -0.208233589307 1.06292064328e-20)
(10.1151383976 -0.244748124909 -1.07048405074e-20)
(10.1171571572 -0.284257938733 -1.08260008122e-20)
(10.11500186 -0.326193190577 1.06644085556e-20)
(10.1080477158 -0.369717211441 -1.0451064261e-20)
(10.0959514772 -0.413716310626 0)
(10.0779591675 -0.456445589348 2.05648933086e-20)
(10.0009678175 -0.00804463980342 -2.71304073344e-22)
(10.0044443373 -0.0168383979589 2.83869153515e-22)
(10.0102015998 -0.0268209622073 1.42211191264e-21)
(10.0174427787 -0.0384714437653 1.13577881456e-21)
(10.0255520164 -0.0520211576988 -2.86964259364e-21)
(10.0341332634 -0.067654564216 5.72512614723e-22)
(10.0428442624 -0.0855544173694 1.15464572245e-21)
(10.0513192029 -0.105884368441 -5.80174423659e-21)
(10.0591564928 -0.128772912907 0)
(10.0659146026 -0.154296888986 0)
(10.071108885 -0.182457325206 4.23414800522e-23)
(10.0742193069 -0.213150662269 -6.24159532138e-23)
(10.0747140394 -0.246141387919 9.43126593677e-21)
(10.0720881797 -0.281042537216 -1.39584628473e-20)
(10.0659170441 -0.317310994603 0)
(10.0559072781 -0.354262256835 -4.27895403846e-21)
(10.0419860864 -0.391076786558 1.7972644283e-20)
(10.0235754388 -0.426489892101 -2.64151576548e-20)
(10.0006933439 -0.00999541460206 0)
(10.0031684211 -0.0206501524936 2.48632492299e-22)
(10.0072446888 -0.032150886648 0)
(10.012319134 -0.0449468047838 -1.5049842239e-21)
(10.0178727109 -0.0592904590582 -4.9646733354e-22)
(10.0235205225 -0.0753610229851 0)
(10.0289187155 -0.0933011474724 -1.0047465983e-21)
(10.0337176274 -0.113210438684 5.00272621984e-21)
(10.0375554606 -0.135134657367 -1.43150029033e-23)
(10.0400612824 -0.159055446506 0)
(10.0408605951 -0.184878250499 1.97660412738e-21)
(10.0395876905 -0.21242058663 3.97838579029e-21)
(10.0359061072 -0.241404746707 5.57620244641e-23)
(10.0295350672 -0.271458684401 0)
(10.0202801779 -0.302127620736 -3.84502547948e-21)
(10.0080539547 -0.332895455484 3.93314672085e-21)
(9.99292571345 -0.363188663585 -3.75660768289e-21)
(9.97438796402 -0.392104168286 7.37071901049e-21)
(10.0004262958 -0.0115113186959 -1.03665085195e-22)
(10.0019413883 -0.023588895271 -2.72392353271e-22)
(10.0043967614 -0.0361954080529 3.24359607369e-22)
(10.0073471399 -0.0497133020166 0)
(10.0103718808 -0.0643750007827 8.71985386719e-22)
(10.0131276079 -0.0803372585909 -4.33354182619e-22)
(10.0153053494 -0.0977042899583 1.29726627482e-21)
(10.0166066962 -0.116525685863 -2.6034845783e-21)
(10.0167423974 -0.136792024611 -3.44308797175e-21)
(10.0154375149 -0.158432041509 1.69687670279e-21)
(10.012438797 -0.181310560389 -4.02641361629e-23)
(10.0075246312 -0.205228494391 0)
(10.000517933 -0.229926822275 -3.35724575512e-21)
(9.99129956821 -0.255095932576 1.66355419982e-21)
(9.97982237687 -0.280390393697 6.67078830216e-21)
(9.96611378254 -0.305446552267 -3.2482748115e-21)
(9.95030676036 -0.329879994596 8.10118362895e-21)
(9.931913854 -0.35305419471 0)
(10.0002008331 -0.0124270791137 1.01977208785e-22)
(10.0009126185 -0.0253125896106 0)
(10.0020078723 -0.0384322299618 -9.72051552133e-25)
(10.0031590768 -0.052086891737 -2.11250235674e-22)
(10.0040292799 -0.0664733364942 2.09775468534e-22)
(10.0043280991 -0.0817258294449 8.44116521677e-22)
(10.0038011181 -0.0979242194736 -8.41477793014e-22)
(10.0022178665 -0.115092446426 0)
(9.99937067526 -0.133199451407 1.69699106653e-21)
(9.99507854036 -0.152161797051 -2.51734295959e-21)
(9.9891925975 -0.171847411872 -1.6740941399e-21)
(9.98160164126 -0.192081106209 0)
(9.9722381306 -0.212652689238 0)
(9.96108284441 -0.233327532411 -4.84561032875e-21)
(9.94816977624 -0.253859121116 4.77315925712e-21)
(9.93358076239 -0.274000914749 1.55409519364e-21)
(9.91747018368 -0.293499688502 -2.16570965711e-23)
(9.89935328776 -0.311902688199 -4.51349088523e-21)
(10.0000510495 -0.0127738823993 -5.60879647133e-23)
(10.0002226008 -0.0259025174707 0)
(10.0003950474 -0.0390113580658 0)
(10.0003081917 -0.0523172329614 4.65560425015e-22)
(9.99967359868 -0.0659880806703 -6.99308899404e-22)
(9.99824311334 -0.0801518462722 -4.87594322105e-24)
(9.99581535957 -0.0948839746949 6.95945000477e-22)
(9.99222284949 -0.110205695983 -4.59429014445e-22)
(9.98732670572 -0.126089557776 4.66780568053e-22)
(9.98101913298 -0.142464904854 9.11423683504e-22)
(9.97322617419 -0.159223602753 0)
(9.96390993028 -0.176227343657 0)
(9.95306956981 -0.193316312268 0)
(9.940741911 -0.210318709654 -2.61944660008e-21)
(9.92700171484 -0.227060358239 -1.17691999084e-23)
(9.91195398044 -0.243372587633 -4.28682966894e-21)
(9.89575780737 -0.259084124973 5.08868178458e-21)
(9.87792466994 -0.273860452599 1.63952394919e-21)
(9.99996324458 -0.0127835075641 -3.0419297918e-23)
(9.99982471222 -0.0258450796127 3.20064794244e-23)
(9.99947260926 -0.0386656775043 -1.90007919152e-22)
(9.99866076783 -0.0513715181383 -2.54810305934e-22)
(9.99710262855 -0.0641245224296 0)
(9.99457565548 -0.0770700623313 -5.07955649974e-22)
(9.99092610011 -0.0902941556862 0)
(9.98603905002 -0.103828115672 0)
(9.97982857744 -0.117660334982 -4.98251682661e-22)
(9.9722401877 -0.131742123031 4.97368744379e-22)
(9.96325223607 -0.14599351369 9.82327741387e-22)
(9.95287447785 -0.160311156761 -1.95394543091e-21)
(9.94114701844 -0.174576827908 9.71460828142e-22)
(9.92813813209 -0.188665613629 9.65435717528e-22)
(9.91394369797 -0.20245333085 0)
(9.89867800516 -0.215821858602 -9.17164882333e-22)
(9.88250010129 -0.228651047922 1.8541138874e-21)
(9.8649159691 -0.240684117735 1.7791829658e-21)
(9.99991154281 -0.0126422523389 -5.42245860526e-26)
(9.99962980152 -0.0255384463424 1.20819023903e-22)
(9.99907191548 -0.0379699559593 1.03870566748e-22)
(9.99793653172 -0.0499573904589 0)
(9.99588251936 -0.0617056949311 0)
(9.99270640056 -0.0734063259371 2.74078483501e-22)
(9.98830420275 -0.0851623195385 0)
(9.98260526563 -0.097020499485 -2.72286947701e-22)
(9.9755638779 -0.108991106928 0)
(9.967166289 -0.121050141109 0)
(9.95742917353 -0.133144518332 5.34870247449e-22)
(9.94639557104 -0.145200837706 0)
(9.93413209356 -0.157133892124 0)
(9.92072664599 -0.168853799526 0)
(9.90628715446 -0.180272117207 0)
(9.89093297994 -0.191305731126 0)
(9.87482403371 -0.201869795986 1.0024723888e-21)
(9.85746458291 -0.211763716014 -9.85151699952e-22)
(9.99986193722 -0.012436328591 -1.78605836227e-23)
(9.99955006713 -0.0252254382821 -3.70611243908e-23)
(9.99906590418 -0.03726997303 3.72241794797e-23)
(9.99793304306 -0.0484707809636 -3.72843032564e-23)
(9.99568871103 -0.0591700752288 -7.4513808078e-23)
(9.99216868112 -0.0696330061015 -3.7314202226e-22)
(9.98733113533 -0.0799765415962 0)
(9.98114069948 -0.0902654848754 2.97857318696e-22)
(9.97358197526 -0.100534667813 -4.42256439853e-22)
(9.96467447986 -0.110783615194 1.47505961861e-22)
(9.95446554577 -0.120982602702 -8.78688511828e-22)
(9.94302279123 -0.131083240504 5.78521203778e-22)
(9.93043130299 -0.141026723416 -5.76015560993e-22)
(9.91679155161 -0.150750082129 0)
(9.90221809783 -0.160191283272 -2.81298457477e-22)
(9.88683133889 -0.169292406369 0)
(9.87079042672 -0.177993522655 0)
(9.85359129195 -0.186133803094 -1.06776631723e-21)
(9.99975883346 -0.0121804705393 9.52433413247e-24)
(9.99947816321 -0.0250799335033 3.99614569772e-23)
(9.99935371151 -0.0368060801213 0)
(9.99850584317 -0.0471985251433 0)
(9.99628447314 -0.05687734212 -4.01501376789e-23)
(9.99262672193 -0.0661745083862 2.81922106796e-22)
(9.98757051283 -0.0752104828773 -3.21400482e-22)
(9.98110476316 -0.0840785650893 8.05023943442e-23)
(9.97323861705 -0.0928417930997 1.70966457116e-24)
(9.96402147045 -0.101518112129 1.60224003646e-22)
(9.95352539758 -0.110093773979 3.19045597489e-22)
(9.94183606674 -0.118537785216 -6.32745366198e-22)
(9.929051533 -0.126809947359 1.84397592752e-24)
(9.91528064595 -0.134866388137 3.10877060095e-22)
(9.90064233728 -0.1426643596 2.64639934413e-24)
(9.88525781142 -0.150165752921 -3.0190660595e-22)
(9.8692916373 -0.157334332022 3.04442830614e-22)
(9.85223985296 -0.164049214235 5.92555009069e-22)
(9.99951358766 -0.0118254516336 -1.01890693427e-23)
(9.99926260836 -0.0252065158803 -1.06049880234e-23)
(9.99979490177 -0.0364975230292 2.12798038099e-23)
(9.9994311211 -0.0459054584456 5.35658267428e-23)
(9.99733856681 -0.0545339100307 0)
(9.99366177963 -0.0626690692591 8.64534572268e-23)
(9.98851189541 -0.0703955061005 2.6073779339e-22)
(9.98188580111 -0.0778531134346 8.67808507188e-23)
(9.97382115453 -0.0851469809597 1.74119820741e-22)
(9.9643997357 -0.0923191279968 -1.73719004074e-22)
(9.95371480269 -0.0993739758523 1.73410724176e-22)
(9.94186465804 -0.106296960565 1.74730093732e-22)
(9.92895532944 -0.113062534565 5.1899985208e-22)
(9.91509944511 -0.119639766393 -5.14823804851e-22)
(9.90041492791 -0.125997638827 1.10350601946e-24)
(9.88501606776 -0.132109313828 3.3956812721e-22)
(9.86906038228 -0.137953021371 -1.67710439891e-22)
(9.85200022501 -0.143430862362 3.28217889988e-22)
(9.9990631973 -0.0113360334901 0)
(9.99882659315 -0.0265192574587 0)
(10.0003942917 -0.037375756632 -8.80658319583e-26)
(10.000557269 -0.0456739233313 -4.59993540427e-23)
(9.99856294004 -0.053437018391 0)
(9.99493308154 -0.0607621152922 -9.39265587638e-23)
(9.98978181561 -0.067605969465 -1.41966330786e-22)
(9.98306936211 -0.0740973312197 -4.75350258423e-23)
(9.97485976823 -0.0803387319822 4.77398820745e-23)
(9.96526787304 -0.086374384549 1.92805591329e-22)
(9.95440591842 -0.092221871132 -9.71824619604e-23)
(9.94238380303 -0.0978856040843 -7.73034070418e-25)
(9.92931580261 -0.103359720783 -1.93562274531e-22)
(9.91531958632 -0.108631464185 9.60565852874e-23)
(9.90051451917 -0.113685941509 9.61054506264e-23)
(9.88501323364 -0.11851208129 9.57591586875e-23)
(9.86898414776 -0.123114047202 3.81008892399e-22)
(9.85187252091 -0.127448844398 -5.64789543287e-22)
(9.99764570427 -0.00813395061081 1.40860749638e-24)
(9.99713944415 -0.0267119166495 -1.48807344837e-24)
(10.0004393484 -0.0368818950802 -1.83513401048e-23)
(10.0010694471 -0.043016604037 1.87936428853e-23)
(9.99891975953 -0.0484897338629 0)
(9.99518972237 -0.0536276325286 0)
(9.98995610193 -0.0585669175903 7.97680446124e-23)
(9.98311158377 -0.0634782419958 -2.7022738072e-23)
(9.97472997834 -0.0684030490608 -5.47237792247e-23)
(9.96493855887 -0.073312493541 0)
(9.95385253356 -0.0781679228623 0)
(9.94158460049 -0.0829333419639 0)
(9.9282535724 -0.0875742856451 1.6813063715e-22)
(9.91398096335 -0.0920578605086 -5.64309204911e-23)
(9.89888619684 -0.0963540831466 2.24242834699e-22)
(9.88307081961 -0.100438868932 -2.25314157934e-22)
(9.86667774456 -0.104308369242 0)
(9.84896049821 -0.107926064115 -1.09970380141e-22)
(9.9940507304 -0.00541126722041 -7.5346827984e-25)
(9.99230986362 -0.0303218499834 8.21994981479e-25)
(9.99892334087 -0.0465618471542 0)
(10.0009043418 -0.0583433767347 -4.33787248586e-23)
(9.9988670625 -0.0668509320675 0)
(9.99479702538 -0.0725163742543 0)
(9.98889256637 -0.0764385937806 -1.58308166315e-23)
(9.98116393861 -0.0794610120756 4.83966205248e-23)
(9.97179302766 -0.0820148465429 -6.56406461965e-23)
(9.96095562961 -0.08431973925 0)
(9.94878338432 -0.0864994095557 0)
(9.93539714702 -0.0886193820325 0)
(9.92092200017 -0.0907054957939 6.76536189108e-23)
(9.90548522181 -0.0927576097594 -6.78294703672e-23)
(9.88921167288 -0.0947581889326 -6.80999002785e-23)
(9.87220814198 -0.0966779977758 6.78413486249e-23)
(9.85464169829 -0.0984991511195 0)
(9.83572663723 -0.100182880381 0)
(9.98451709106 0.00428429473224 0)
(9.97848000399 0.0216345189465 0)
(9.98594951661 0.0315253759783 0)
(9.98895070671 0.0253656510826 8.89252719731e-24)
(9.98798977326 0.0136875046285 4.63679505375e-24)
(9.98418392777 0.00176102153412 1.45107613089e-23)
(9.97739429672 -0.0093608031521 -9.77087396572e-24)
(9.9678161862 -0.0194780397906 -2.00925977919e-23)
(9.95585760354 -0.0285118209778 -1.0109014495e-23)
(9.94184821679 -0.0364907499191 -6.11941938304e-23)
(9.92603205715 -0.0435123075081 2.05735774982e-23)
(9.90862176603 -0.0496913270457 2.07610089984e-23)
(9.88981917209 -0.0551343249834 -6.20200638578e-23)
(9.86981643748 -0.0599304852455 8.29987400668e-23)
(9.84879562047 -0.0641464369411 -8.2484303613e-23)
(9.82690894505 -0.0678180931732 -8.26747571608e-23)
(9.80435349239 -0.0709524897739 -1.93024237902e-25)
(9.77982167365 -0.073416447414 -4.07624963624e-23)
(10.0130379457 -0.31824167595 -5.1145681079e-25)
(10.0068288746 -0.328145103349 6.78664266676e-25)
(9.99077282291 -0.274272103414 -2.07358299267e-24)
(9.96793009569 -0.228579340897 1.1545803286e-23)
(9.94498995497 -0.192826940428 -1.49556247666e-24)
(9.92090611652 -0.164506864842 -2.0962509276e-23)
(9.89409250837 -0.142479518494 -3.05924161669e-24)
(9.86433488084 -0.125548607239 0)
(9.83192591024 -0.112539374074 -1.23189402589e-23)
(9.797177569 -0.102512555302 4.94488840087e-23)
(9.76038563121 -0.0947633564083 1.23673970396e-23)
(9.72185618092 -0.0887609562973 -8.68970856115e-23)
(9.6819007202 -0.0841003647714 -1.23557784918e-23)
(9.64082430459 -0.0804682456384 -3.70738905051e-23)
(9.59892344861 -0.0776146792071 7.41134090098e-23)
(9.55647580075 -0.0753207039457 9.83804097595e-23)
(9.51390747906 -0.0733552124627 -9.81346162558e-23)
(9.46956516996 -0.0711334321712 8.55340522216e-23)
(9.95344581267 0.912951878215 6.87632454719e-25)
(9.9506610174 0.560539441212 4.11119083545e-25)
(9.85803811704 0.374622197376 3.12048840529e-24)
(9.73798163388 0.257380139072 0)
(9.61552666807 0.178968563665 0)
(9.49441453492 0.125022367219 0)
(9.37498486598 0.0868571793261 0)
(9.25811406799 0.0592487825283 0)
(9.14453212899 0.0389607220075 1.53218790003e-23)
(9.03458516027 0.0238755657407 0)
(8.92839509738 0.0125524459353 3.86085119552e-24)
(8.82598795861 0.00398772144648 1.95341625423e-23)
(8.72734125507 -0.00252965367215 7.85234273135e-24)
(8.63240380549 -0.00751004726927 7.80371719295e-24)
(8.5411168804 -0.0113216895605 -3.15201388869e-23)
(8.45342061936 -0.0142250780635 -3.93623975937e-23)
(8.36957863516 -0.016360300025 0)
(8.28663084636 -0.0176515855656 -1.56892649962e-23)
(1.08221430506 -0.127645802927 -5.5812678865e-16)
(0.989465018399 -0.070381576539 0)
(0.959988930964 0.0429371255186 -6.92867722215e-18)
(1.02462828326 0.0207626577549 0)
(1.08786815424 0.00275880700415 0)
(1.13691729222 -0.00754281462044 -4.76802008645e-18)
(1.18486638851 -0.0125456316911 2.28629001645e-18)
(1.23426956934 -0.0148247612974 0)
(1.28316598499 -0.0156656939652 0)
(1.33065624809 -0.0157082025248 3.4449060718e-19)
(1.37668966423 -0.0153293906546 -3.34720364569e-19)
(1.42128101001 -0.0147524372959 -1.63285027536e-19)
(1.46442970202 -0.0140982030424 1.59382837372e-19)
(1.5061733562 -0.0134279217172 0)
(1.54657060747 -0.0127707924219 0)
(1.58567459176 -0.0121379532048 -6.37983835765e-19)
(1.62352318963 -0.0115296667564 1.84295586481e-20)
(1.66013180247 -0.0109394117535 1.81480232113e-20)
(1.69548340919 -0.0103557874406 -5.63208760787e-19)
(1.7295153342 -0.00976263876772 5.55475456784e-19)
(1.76210194196 -0.0091376445125 0)
(1.79302760438 -0.00844911508929 -2.15284118986e-21)
(1.82194254527 -0.00764965291217 1.09268409327e-18)
(1.84828791 -0.00666401985385 1.08252245558e-18)
(1.87114570794 -0.00536273093266 -1.57469127714e-21)
(1.88905957207 -0.00352179205924 7.85071011555e-22)
(1.89850265892 -0.000695212859184 1.07376026494e-18)
(1.89862398931 0.00461162220093 0)
(1.83478738923 0.0233087002809 1.33663516788e-22)
(1.2321982336 -0.171875796633 2.44865594771e-16)
(1.18556689213 -0.176706478654 7.42317389112e-17)
(1.1651225791 -0.167405714946 -1.28137953075e-16)
(1.20147110252 -0.148310826111 2.41756686724e-16)
(1.24788646636 -0.138175012757 -5.75158978153e-19)
(1.29755958298 -0.0815388354171 4.52738907696e-18)
(1.37968318578 -0.0588832900203 0)
(1.45535317264 -0.0530150179674 3.9325337498e-18)
(1.51490890382 -0.049257379943 -2.7981467455e-18)
(1.56829057684 -0.0459235374127 4.47269611172e-19)
(1.61960286055 -0.043308423058 -8.6331583848e-19)
(1.66898389149 -0.0411759546389 0)
(1.7165410071 -0.0392806477286 0)
(1.76261219813 -0.0375366243078 -2.00172907887e-19)
(1.80741119274 -0.0359204067495 9.80639218695e-20)
(1.85104638762 -0.034416257201 -6.75833743368e-19)
(1.89359797375 -0.0330093398064 7.61134417889e-19)
(1.93513006369 -0.031685445261 4.69829723749e-20)
(1.97568572446 -0.0304284345434 3.48246617165e-19)
(2.01528704639 -0.0292186158715 -2.29532586854e-20)
(2.05393274419 -0.0280318354693 1.13741416709e-20)
(2.09159172835 -0.0268380913918 3.55169409944e-19)
(2.12819253151 -0.0255985496519 -3.63587089628e-19)
(2.16360869736 -0.0242606516893 0)
(2.19763552662 -0.0227495611598 0)
(2.22995310821 -0.0209528421335 -7.03559438538e-19)
(2.26006548024 -0.0186910773774 -2.10361187965e-18)
(2.2871795025 -0.0156567908291 6.83290865645e-22)
(2.31006604493 -0.0112865534874 0)
(2.32603979119 -0.00453744621686 -2.11414653724e-18)
(2.33409889463 0.00820253149547 8.63542348459e-23)
(2.30336477917 0.039514011609 -1.40398305128e-18)
(1.38554620608 -0.197827618244 0)
(1.33445693075 -0.205329457912 0)
(1.30090954749 -0.196898828562 1.25956906043e-16)
(1.29234598656 -0.200524539182 -1.0278009121e-16)
(1.33932040964 -0.188372095635 -1.04595652895e-16)
(1.41609735314 -0.189052172897 8.24253869356e-18)
(1.46730869906 -0.187395828082 -7.52069622197e-18)
(1.51973537187 -0.172787343815 0)
(1.56821429077 -0.15212773779 -9.56271388389e-18)
(1.61805732202 -0.111209823717 6.13732616407e-18)
(1.68361880418 -0.0877201148794 0)
(1.74727574145 -0.0798312461815 7.00248038122e-19)
(1.80146081622 -0.075460014732 -6.72111863505e-19)
(1.85083558082 -0.0716453755761 0)
(1.89820774309 -0.068417893766 6.30010867201e-19)
(1.9439132962 -0.0656220860723 1.22823932608e-18)
(1.98813601928 -0.0630563187534 6.00458905258e-19)