/*--------------------------------*- C++ -*----------------------------------*\
| =========                 |                                                 |
| \\      /  F ield         | OpenFOAM: The Open Source CFD Toolbox           |
|  \\    /   O peration     | Version:  2.3.1                                 |
|   \\  /    A nd           | Web:      www.OpenFOAM.org                      |
|    \\/     M anipulation  |                                                 |
\*---------------------------------------------------------------------------*/
FoamFile
{
    version     2.0;
    format      ascii;
    class       volScalarField;
    location    "200";
    object      epsilon;
}
// * * * * * * * * * * * * * * * * * * * * * * * * * * * * * * * * * * * * * //

dimensions      [0 2 -3 0 0 0 0];

internalField   nonuniform List<scalar> 
10011
(
1739.51964252
3022.16516333
4034.82748557
4725.13587681
5151.76174068
5390.56687394
5505.66035211
5544.28576284
5539.11271893
5512.18463439
5478.55806962
5449.18341165
5433.20338625
5439.97516838
5471.48060866
5531.85350382
5622.82567676
6604.99827841
187.180321796
344.287076245
469.488422194
568.685078531
639.786102794
686.397701758
714.726169875
730.481956754
738.02158248
740.386177963
739.545414051
736.62243522
731.991736331
723.681919957
713.943285283
703.554253897
683.032128035
649.104061699
41.8147883113
72.3031418117
98.0056608003
119.504204387
136.686972712
149.680126164
159.003971813
165.29866551
169.169811661
171.12410015
171.53652076
170.627249614
168.133734587
164.808027055
161.134452088
156.61226754
150.319330731
141.37075439
20.348547083
27.913406435
35.2743769737
41.9204971761
47.6675546379
52.451788644
56.3037727733
59.3005882256
61.5334131617
63.08839603
64.0122962475
64.3105575965
64.281570742
63.9537897387
63.3403619408
62.422765802
61.1670463952
59.5564082113
16.0512995145
18.1891571681
20.6082077057
23.0119274309
25.2547951019
27.2614517229
29.0015531757
30.4704473579
31.6750779473
32.6135721461
33.3192237368
33.8475588379
34.2214757829
34.4609062258
34.5859687345
34.6211245985
34.5922291707
34.4640096515
15.0109724654
15.5370289179
16.2889479809
17.1443833328
18.0212019389
18.8664824302
19.6486886633
20.3503097991
20.956846846
21.4799539959
21.9271719717
22.3057304514
22.6248960581
22.8965012972
23.1362233446
23.3643393391
23.5970623104
23.7933383453
14.7573960046
14.7792351648
14.9146708556
15.1333616342
15.4040456137
15.7000073787
16.0004032051
16.2900283774
16.5656338889
16.8230152039
17.0613828698
17.2825164491
17.4907301158
17.6931040851
17.8996068947
18.1218903934
18.3650799257
18.5933863993
14.7057977444
14.5996743865
14.5491389924
14.5494719146
14.5910374339
14.6624684941
14.7531071118
14.8557787812
14.9650185106
15.0773217937
15.1911579393
15.3069184131
15.4269411141
15.5555159007
15.6985361447
15.8619562318
16.0457086063
16.221079448
14.6919254038
14.5453175896
14.4267730869
14.337284508
14.2752563086
14.2372599527
14.2196361328
14.2186744103
14.2313913025
14.2557533151
14.290839678
14.3369606571
14.395715901
14.4699002308
14.5630065057
14.6777731954
14.8118119737
14.94190827
14.687943602
14.5281757797
14.3844144713
14.2574996775
14.1477135703
14.0548152206
13.9780238378
13.9163762117
13.8690391822
13.8355285348
13.8158803441
13.8107731115
13.8215561456
13.8500971127
13.8982880066
13.9668955318
14.0526475147
14.1376838124
14.6869064326
14.5234623491
14.3719172068
14.2322863004
14.1046896117
13.9892622664
13.8860625265
13.7951415045
13.7166515139
13.6509349023
13.5985961825
13.5605405818
13.5379336856
13.532018764
13.5437076383
13.5727934686
13.61613815
13.6607351998
14.6866463728
14.5221930263
14.3684446192
14.22505456
14.0918153175
13.9686769502
13.8556878986
13.7530048509
13.6609281603
13.5799233994
13.5106248158
13.4538093399
13.4103133741
13.3808594744
13.3657625033
13.3644503831
13.3743958149
13.3865491911
14.6866143543
14.5217927512
14.3672563748
14.222579917
14.0874226094
13.9615832347
13.8449781615
13.737641344
13.6397369375
13.5515585106
13.4735082163
13.406050272
13.3496273496
13.3045291591
13.2707096407
13.2475237062
13.2331225776
13.2214065909
14.6866914862
14.5216727591
14.3666771396
14.2212681559
14.0850613508
13.9577749184
13.8392250598
13.7293224836
13.6280731341
13.535569145
13.4519637829
13.3774285534
13.3120897776
13.2559450057
13.2087630664
13.169950939
13.1382262088
13.1095654151
14.6868413903
14.5217055464
14.3663689294
14.2203795988
14.0833267903
13.9548761141
13.8347707836
13.7228266485
13.6189266307
13.5230086116
13.4350433559
13.3550021761
13.2828155233
13.2183253404
13.1612355598
13.111047603
13.0668995964
13.0261927703
14.6870303476
14.5218316282
14.3662372931
14.219767993
14.0819856361
13.9525142701
13.8310415328
13.71731334
13.6111258958
13.5123136683
13.4207319354
13.3362345883
13.2586488707
13.1877496922
13.1232361986
13.0647012096
13.011575192
12.9622316784
14.6872129281
14.5219833893
14.3661983023
14.2193455413
14.080959042
13.9506295299
13.8280042415
13.7127810658
13.6047002465
13.5035334635
13.4090704707
13.3211038249
13.2394134192
13.1637521053
13.093834296
13.029321742
12.9698359194
12.9144097721
14.6873331534
14.5220785524
14.3661513162
14.2190103518
14.0801668458
13.949188746
13.825697879
13.7093634676
13.5998940426
13.4970276455
13.40052099
13.3101381536
13.2256401053
13.1467755474
13.0732745591
13.0048422531
12.9412135124
12.8818359293
14.6873727713
14.5220848232
14.3660465372
14.2186966266
14.0795334411
13.9481138188
13.8240470481
13.70698818
13.5966301873
13.4926949501
13.3949235365
13.3030672205
13.216879295
13.1361086141
13.0604952776
12.9897685055
12.923726494
12.8620601385
14.6873618406
14.5220354083
14.3659045631
14.2183976627
14.0790126606
13.9473069708
13.8228886525
13.7054105371
13.5945628652
13.4900639921
13.3916516211
13.299074762
13.2120871898
13.1304417902
13.0538875825
12.9821690938
12.9151216478
12.8525777001
14.6873336923
14.5219778609
14.3657869707
14.2182035321
14.0787557577
13.9470303428
13.8226622843
13.7053304123
13.5947481831
13.4906529653
13.3927969634
13.3009399604
13.2148432157
13.1342647701
13.058957014
12.9886674206
12.9232422676
12.862572496
14.6873312483
14.5220590778
14.3660892418
14.2190054091
14.0804948395
13.9502830253
13.8281189598
13.7137674886
13.6069959854
13.5075642033
13.4152194289
13.3296941372
13.2507048528
13.1779522741
13.1111231157
13.0498941607
12.9940392518
12.943336866
14.6876034261
14.5234662442
14.3701261728
14.2278617369
14.0968875527
13.9772262368
13.868716639
13.7710420642
13.6837587082
13.6063299839
13.5381603424
13.4786222839
13.4270761845
13.3828844598
13.3454223637
13.3140848752
13.2883856489
13.2676863857
14.6903435584
14.5356955401
14.4013909997
14.2891569961
14.1991785976
14.1304045302
14.0810469445
14.0489834798
14.0320167429
14.0280325938
14.0350863688
14.0514375511
14.0755534577
14.1060971039
14.1419090697
14.1819847736
14.2255310902
14.27127288
14.7129872084
14.6219964594
14.5934639328
14.6223590162
14.6992665223
14.813655502
14.9558148218
15.1176349316
15.2926593725
15.4758820536
15.6634902939
15.8526149605
16.0411139043
16.2273972741
16.4102933948
16.5889434388
16.762798498
16.9303875176
14.8729300779
15.1283315778
15.5598197939
16.1026974955
16.7087081789
17.3436106353
17.9847036784
18.617641811
19.2335061145
19.8268769538
20.3946440433
20.9352296805
21.448066213
21.9332430718
22.391267632
22.8228974488
23.2291474552
23.6095813916
15.8787566028
17.7247579399
19.8405824273
22.0042429669
24.1253991945
26.1578589235
28.0791520713
29.8799832517
31.5576466926
33.1131627722
34.5499985953
35.8732378641
37.0889497003
38.2037026551
39.2241751549
40.1568188552
41.0078344016
41.7816619069
22.1640425738
31.1460392571
39.458344854
47.1938710816
54.4154648919
61.0935341702
67.2117870856
72.7697925507
77.7771624516
82.2537658035
86.2289116403
89.7386817225
92.8228768203
95.5223068575
97.8764646103
99.9211621074
101.685697276
103.184443216
68.0732899697
115.223031022
155.522917445
193.083217923
228.002267938
259.583879664
287.481122083
311.633520809
332.17144609
349.361119139
363.549963429
375.117070295
384.437257517
391.858645118
397.689692187
402.189506466
405.547970724
407.805176871
723.16977551
1065.38188805
1375.37506507
1653.9722855
1910.21917103
2136.98595064
2330.82833828
2491.30650239
2620.06849535
2719.99143908
2794.52959726
2847.27195786
2881.66698152
2900.86982584
2907.67426624
2904.49754047
2893.42542461
2875.96249013
162.86757209
60.6237180474
68.9458183264
58.6378125026
56.262012038
54.7973040564
54.0064439991
53.7575120259
53.9387355778
54.4502669184
55.2087319034
56.1459158331
57.2056239113
58.3418826881
59.5181044498
60.7063419143
61.8863239359
63.0441930867
64.1712496181
65.2624191226
66.3159541142
67.3346988593
68.3217782765
69.2687780129
70.1620639566
70.9780577576
71.667405235
72.1546134561
71.954812544
204.994603125
98.057585718
68.6460588557
51.54508524
39.8718409043
34.3890747121
30.6113738597
27.9429090048
26.1488963392
24.9880147516
24.2681802262
23.862535695
23.6851477715
23.6730414813
23.7785057996
23.9654753076
24.2069935909
24.4832175537
24.7798804732
25.0871245593
25.3984950147
25.7102598317
26.0200317445
26.3266925128
26.6380027925
26.959778193
27.2969031813
27.6602278432
28.074196402
28.6014234647
29.4318972198
31.3262177883
262.142087721
132.940386805
100.509183541
76.7554387373
58.5306976703
45.7474018244
38.2262974101
33.6156892522
30.9574142418
29.1957654336
27.4676063085
25.8555533813
24.4906728994
23.3706386344
22.4565480403
21.7172460434
21.1285099136
20.6685208577
20.3172020063
20.0566542986
19.8713475286
19.7480987439
19.6758644337
19.6455749828
19.6496792145
19.6821860426
19.7392893588
19.819196319
19.9209076329
20.0457134273
20.1973116786
20.3841482765
20.6252975164
20.9657051699
21.5214606749
22.6221810492
309.790977364
159.683160895
122.218491379
94.290604391
72.540381844
56.9886111775
47.3968793189
40.998674952
36.6317920766
33.6151840239
31.4950779117
30.0137686433
29.0198837144
28.2172245246
27.2582124518
26.1983115623
25.1705695539
24.2225722743
23.3611250717
22.5877325511
21.9026125654
21.3032712321
20.7850696052
20.342335478
19.9690617579
19.6592730122
19.4068564699
19.2056666895
19.0498695498
18.9344933038
18.8555261366
18.8102194039
18.7968882008
18.8154015729
18.867878205
18.9603340432
19.1066517951
19.3372072435
19.7192860955
20.3947888379
362.127023562
189.100593207
146.093283006
113.646923811
87.7490775524
69.0906489615
57.5070235289
49.6606689469
44.1579723516
40.177265798
37.1522346161
34.853158752
33.1016644593
31.7424316801
30.7046105054
29.9082052207
29.2939760107
28.7223918843
28.0220513019
27.2106264964
26.3748403746
25.5605169566
24.7835898708
24.0528810547
23.3748701354
22.7532738626
22.1895876594
21.6840700621
21.2361890495
20.8447010337
20.5057650091
20.2157768863
19.9717283959
19.7707834087
19.6103337749
19.4882985819
19.403339347
19.3552581725
19.3456909838
19.3794024019
19.4669979203
19.6296565623
19.9076688426
20.3658581212
417.646430195
220.663515155
172.02925304
135.059600983
104.649294016
82.6299170679
68.9134927349
59.5335603929
52.8686491524
47.9948558348
44.2539019772
41.3408566484
39.0279967906
37.1276247471
35.5550006778
34.2630423201
33.1927366034
32.3007595439
31.5711319078
30.9678703975
30.4504359565
29.9360522766
29.3302516923
28.6351987945
27.9038271142
27.1725109752
26.4580620329
25.7707024031
25.1181945005
24.5060084247
23.9379156367
23.4170443595
22.9450885881
22.5196655197
22.1401792768
21.8055943595
21.5145822268
21.2657376741
21.057703599
20.8893616817
20.7600800427
20.6700879401
20.6210921433
20.6172855806
20.6671641428
20.7859138706
20.9982615243
21.335039731
511.359395465
276.526724007
227.772165193
192.336875608
155.809474586
121.488208323
96.5377299225
80.9463549284
70.1833030781
62.4402845775
56.7263287342
52.3108639673
48.8317955684
46.0337854883
43.7065425785
41.742096525
40.0739280568
38.6294293682
37.3591989046
36.2523156407
35.2969152152
34.4667273852
33.7431823312
33.1178579217
32.5697910903
32.068321266
31.5596060256
30.9871606274
30.3476947349
29.6732753221
28.9912935172
28.3172638703
27.6613375149
27.0313538308
26.4333963843
25.8726007844
25.3532001383
24.8737152373
24.4351021608
24.0376998202
23.6814610046
23.3660661172
23.0910471584
22.8559108741
22.6603024092
22.5042300936
22.3884000774
22.3147308593
22.2871091923
22.3125342288
22.4020706639
22.5709170324
22.8340854539
616.396279304
335.794190683
277.805413711
235.981717058
192.646553551
151.268207737
121.13359121
102.259002821
88.976809094
78.9802914209
71.3383370336
65.4485906202
60.7387908181
56.9217650728
53.7800514173
51.1180873119
48.8315879032
46.8546845298
45.1150406955
43.5592677049
42.1688663594
40.9257715274
39.8008339233
38.7770197885
37.8546876882
37.0308461657
36.2922941374
35.6285923613
35.0327295245
34.489933091
33.976343713
33.454922208
32.8894526483
32.2748641696
31.6306051872
30.9768997967
30.3273146097
29.6914479061
29.0769836281
28.4906825508
27.93901171
27.4213833264
26.9397705444
26.4954034023
26.0890638394
25.721211954
25.3920710769
25.1017222568
24.8502144287
24.6377095941
24.4646816286
24.332203408
24.2423589155
24.1987777994
24.2072722775
24.2759338248
24.4138064837
24.6285424919
741.062016531
406.066897002
336.949210853
287.681529051
236.65392648
186.52455528
149.761225848
126.68571674
110.379995488
98.0196699926
88.5013518734
81.1187654408
75.1376528367
70.1539993183
65.9867605967
62.4823683901
59.4728312418
56.8606642827
54.5789827276
52.5531914395
50.7264005171
49.0751821536
47.5787906732
46.206471699
44.9379801784
43.7687550599
42.6925677435
41.6961215035
40.7723894626
39.9228871162
39.1468211853
38.4367100607
37.785274065
37.1859119125
36.6268327786
36.0892434525
35.5466231888
34.9743509429
34.3669776879
33.7362141438
33.0968051292
32.4602207468
31.8352938337
31.2296470863
30.6513866224
30.1027728671
29.5853624633
29.1012615526
28.6519679699
28.2385619171
27.8618079342
27.5222485173
27.2202981654
26.9563501914
26.7309070134
26.5447571759
26.399214405
26.296435999
26.2397708952
26.234021176
26.2850685239
26.3978119924
26.5767744948
885.048250885
487.434676317
405.504386986
347.994695691
288.660198777
228.230034862
183.646610589
155.66746879
135.834880034
120.693530354
108.936382013
99.7741819423
92.3655942587
86.1769192905
80.9581336203
76.5255942971
72.6817705291
69.2986278375
66.3001739906
63.6361377368
61.2463562651
59.0805696953
57.1154533068
55.3273096458
53.6823145123
52.156424731
50.7400842556
49.4238547903
48.1923318388
47.0357817328
45.9523133828
44.9392202056
43.9897617896
43.1003703695
42.2718264284
41.5035687069
40.7907116673
40.1275539624
39.5078303043
38.9215822939
38.3538088867
37.7848794148
37.1972129963
36.5855241025
35.9566916047
35.3213394098
34.6889393494
34.0675499897
33.4650371955
32.8885662293
32.3381512366
31.8169231759
31.3271119563
30.8703967132
30.4480437717
30.0610103551
29.7100458086
29.395786681
29.1188586582
28.8799960996
28.6801970249
28.5209188532
28.4043112469
28.3334164308
28.31215838
28.3447634334
28.4332603856
28.5812315632
1038.38908579
575.187490032
480.229405117
414.786100915
347.523863146
275.455606673
222.055094973
188.676149153
164.987043904
146.776188604
132.5087955
121.343244623
112.345496187
104.820305415
98.4367537555
92.9895307693
88.2636647882
84.1031623036
80.4003210927
77.083451882
74.0802376462
71.3309825867
68.808867749
66.4957136917
64.3699222469
62.4024744901
60.57180919
58.8680776896
57.2798948341
55.7900641072
54.3864864291
53.0639525064
51.8173085938
50.6381770703
49.521097674
48.4647661949
47.46770033
46.5262383358
45.6382243865
44.8037153723
44.0219378487
43.2893294802
42.6010692052
41.9513282698
41.3315309333
40.7295274407
40.1303808568
39.5210052662
38.8964948607
38.2606683203
37.6210812552
36.9854494481
36.3613491725
35.7577164454
35.1751252841
34.6174026785
34.0874051519
33.5873806104
33.1190977197
32.6839361726
32.2829867471
31.9171469042
31.587213789
31.293978957
31.0383398759
30.8214321888
30.644787468
30.5104902507
30.4212672916
30.3802862802
30.3905459319
30.4520624689
30.5685953878
1236.37857575
690.671093691
586.667967866
529.4081178
472.553325426
404.733148381
321.736509485
260.174775805
222.051965213
195.006686943
174.05073424
157.452972751
144.411590462
133.941523494
125.169345283
117.677054581
111.247782927
105.663387231
100.748174212
96.36183616
92.4133721169
88.8249798426
85.5325104688
82.4994281263
79.6980247331
77.0997611787
74.6717098776
72.3900695952
70.2475060293
68.2386426255
66.352923172
64.5754884314
62.8957399494
61.3084365487
59.8072570357
58.382716024
57.0278505322
55.7392707632
54.5137916404
53.3466367186
52.2344785922
51.1762653343
50.1710387739
49.2167241253
48.3118410756
47.4559718367
46.6481342747
45.8854638635
45.1637768341
44.4777265471
43.8198977145
43.1803316256
42.5473933252
41.9109977738
41.2666911594
40.6163443556
39.9652567543
39.3197797264
38.6874854492
38.0739956121
37.480180275
36.9097922777
36.3657448853
35.8503600684
35.365481155
34.9125744638
34.4928312078
34.1072595134
33.7567734368
33.4422832565
33.1647972547
32.9255346758
32.726047641
32.568317054
32.4547600595
32.3879061045
32.3698632095
32.3992409094
32.480499973
1384.93660259
780.578884547
668.150150365
608.22092069
549.315010451
477.647222374
381.478850075
310.163176276
266.942746148
236.789658484
213.260840472
193.767636603
177.512774577
164.336144632
153.579115534
144.403885506
136.419782656
129.467854186
123.377572946
117.986962088
113.140177153
108.737994966
104.707870255
100.990744817
97.5476976595
94.3462290813
91.3553244719
88.5425300844
85.8836433204
83.3680140201
80.987496424
78.730038998
76.5807315107
74.5299625924
72.5760302762
70.7175201711
68.9490590241
67.2627521952
65.6528743736
64.1163111526
62.6493613877
61.2466252605
59.9038309306
58.6186198174
57.3889251177
56.2119423307
55.0855513515
54.008875226
52.9812472092
52.0013987342
51.0682301909
50.181061695
49.3387886617
48.5389533445
47.7778687381
47.0507161567
46.3510642283
45.6706784232
45.0003152053
44.3319847888
43.6616807225
42.9900403182
42.3207548683
41.6594028105
41.0134473553
40.3826756736
39.7711147744
39.1820260522
38.6181643354
38.0818043263
37.5747950293
37.0986443293
36.6546042321
36.2437551332
35.8670870803
35.5255862772
35.2203251089
34.9525590317
34.7238158337
34.5359450422
34.3910687428
34.291187957
34.2377840071
34.2285044641
34.2686949442
1350.49270312
779.265917742
683.148443354
641.386323071
610.558104382
569.994535629
511.849543692
411.332369084
336.390820644
292.24441894
261.927141968
238.217099198
218.293742074
201.471238463
187.924442635
177.036840695
167.710954832
159.335101688
151.772604956
145.038809901
139.069053523
133.742084984
128.901690696
124.448386496
120.322600033
116.478306668
112.881622889
109.500576322
106.306282257
103.271539289
100.376459717
97.6113549306
94.9688746431
92.4386418323
90.0080605046
87.6687262194
85.4185183608
83.2558370229
81.1759725122
79.1725768228
77.242124842
75.3848306792
73.6008809893
71.8877256449
70.2412133723
68.6581534706
67.1366132392
65.6744650839
64.2686203588
62.9164187909
61.6161963673
60.3666121777
59.1659750248
58.0129064298
56.9066979488
55.8468488409
54.8325211417
53.862833144
52.9369976896
52.0538468956
51.2111919179
50.4057690883
49.6332763922
48.8881487217
48.1635142343
47.4519014682
46.7468411818
46.044738215
45.3454627682
44.6517164602
43.9690351751
43.3003065676
42.6464843227
42.0111626706
41.3974247905
40.8079116496
40.2448306612
39.7100061833
39.2049513033
38.7309409727
38.2890876364
37.8804169225
37.5059474559
37.1667714488
36.8641352251
36.5995034457
36.3745720326
36.191186673
36.0509165424
35.9548186176
35.8999149417
35.8924247735
956.3608996
572.967480642
522.593545599
510.048022593
504.552150108
490.637057373
460.969744044
376.903016365
313.684873047
278.658001058
256.13694269
239.346080113
225.213621546
212.453053666
200.872246362
191.209604484
183.448883762
176.652914694
170.28426662
164.300160517
158.83835952
153.930789419
149.479608541
145.309792831
141.313058385
137.473421059
133.803627407
130.305467826
126.969364352
123.775126812
120.702927309
117.7354888
114.861012316
112.07430026
109.371600769
106.746919836
104.192696525
101.704527862
99.2825234332
96.9271855497
94.6364181096
92.4065778243
90.2360085416
88.1258747847
86.0772987905
84.0892585135
82.1596877654
80.2878859234
78.4748283142
76.7214435642
75.0268080673
73.3888966711
71.8059811754
70.2768942109
68.8004659733
67.3749582122
65.9987410919
64.6706902496
63.3899364988
62.1554564812
60.9663452937
59.8220641974
58.7222105912
57.6661737651
56.6532121021
55.6825221274
54.7529130745
53.862407019
53.0081011352
52.1861862348
51.391840356
50.6192932649
49.8624107598
49.1158532448
48.3763888523
47.6434526412
46.9194170015
46.2088307472
45.5100947081
44.8265499291
44.1612070008
43.5168447006
42.8959088513
42.3004831667
41.7323204239
41.1928930983
40.683455364
40.2051083252
39.7588708749
39.3457504061
38.9668159001
38.6232624837
38.3164576622
38.047926792
37.8192583257
37.6316717903
37.4859503088
37.3787518036
37.3170556106
561.427587379
328.596343033
302.272407528
300.589751092
302.493238051
297.806895833
286.245039793
242.542396337
208.985383448
192.424418309
183.477836462
178.05328859
174.230635532
171.082718769
168.094279203
165.768759286
164.390141127
163.225977599
161.819753952
160.06177536
158.110320997
156.183071953
154.357804334
152.593628153
150.756479262
148.770730874
146.656202821
144.463915545
142.224437908
139.942921262
137.612021467
135.232671594
132.818232974
130.382256867
127.935489079
125.487568068
123.0456311
120.613393708
118.192243559
115.784892633
113.396502264
111.032058286
108.694299731
106.384402462
104.10464053
101.859031943
99.651221562
97.4829690824
95.3549173249
93.2684937872
91.2262699216
89.2306217211
87.2824629878
85.3819329678
83.5296960311
81.727087158
79.9753576302
78.2745085441
76.6237470399
75.0222464147
73.4693982291
71.9646102618
70.5069562594
69.0954792501
67.7294857733
66.408423938
65.1316783732
63.8986634195
62.7089907848
61.5623232034
60.458181568
59.3959168616
58.3747436588
57.3934972036
56.4503690126
55.5427771544
54.6673641163
53.8199517154
52.99565568
52.189366379
51.3965935466
50.6144042677
49.8421398644
49.0825994605
48.3350953828
47.6003185524
46.8810066528
46.179829115
45.4992841692
44.8415941976
44.2086778313
43.6021676224
43.0234473465
42.4737032931
41.9539816402
41.4652514461
41.0084679832
40.5846364213
40.1948647707
39.8403946508
39.5225705051
39.2427418073
39.0018473676
38.8005030852
38.635209728
38.5135523023
524.726641287
291.547564468
259.310351449
252.322595927
250.399726918
243.048833958
217.92861261
177.90116774
150.92379862
129.286256495
117.722518471
111.098629693
107.229755777
105.358957378
105.344038704
106.97442183
109.768293886
113.440781369
117.326905048
121.067040142
124.560692213
127.874690801
131.058036977
134.030461799
136.691351224
138.91224262
140.634323371
141.881371846
142.72940438
143.248734424
143.471388294
143.405552754
143.054292539
142.432992469
141.570452468
140.494566214
139.227198313
137.78823125
136.199014557
134.481915267
132.658052576
130.744499002
128.75599082
126.706686867
124.609390914
122.474330373
120.309749852
118.123872606
115.925545133
113.722755032
111.521777368
109.327622068
107.145420652
104.98077006
102.83865378
100.722687471
98.6355838232
96.5801810888
94.5596463129
92.5768882696
90.6337883368
88.7316044404
86.8716659554
85.0554861046
83.2844283464
81.5590114862
79.8791563772
78.244609842
76.6551706222
75.1106108584
73.6104985403
72.1543264845
70.7417188716
69.3723534161
68.045876975
66.7619201558
65.5202115556
64.3204723519
63.1622999117
62.0451180609
60.9681712149
59.930346227
58.929994931
57.9648144985
57.0318520955
56.1274814901
55.2475433867
54.3877205869
53.5441595413
52.7141647063
51.897295305
51.0949164097
50.3042522671
49.5275091357
48.7669366348
48.0248168215
47.3033066531
46.6043477711
45.9296382625
45.2806362419
44.6585873352
44.0645643577
43.4995174327
42.9643267702
42.4598596118
41.9870233856
41.5468105581
41.1403164339
40.7687007152
40.433092776
40.1342067032
39.8725615356
39.6446612758
39.4585444333
600.569888961
330.068101492
291.383583985
282.126597618
280.364495046
278.371314635
267.989973617
235.527812646
182.973753424
154.437092937
130.00092608
115.014027985
104.568021806
96.1912546466
88.6905059805
81.540613992
75.0701780878
70.5427716626
68.571141679
68.8578895764
70.7628299277
73.8332455201
77.8351520261
82.6638376949
88.1603725496
93.9838469101
99.8200220572
105.439975875
110.737068703
115.689507643
120.306440401
124.568517151
128.413224969
131.781349236
134.646622434
137.022095327
138.945638343
140.458894969
141.590428358
142.35604803
142.770961397
142.857688662
142.644783386
142.16153251
141.433182365
140.481924262
139.330347635
138.002793243
136.523206933
134.913039663
133.190559065
131.371943502
129.4723207
127.505326748
125.482770915
123.41503045
121.312021764
119.183545282
117.038383069
114.884039753
112.726989929
110.573393174
108.429305468
106.300124818
104.190228717
102.103229743
100.042537832
98.0115075975
96.0131818675
94.0498641261
92.1233305504
90.2352093267
88.3870797573
86.5803162455
84.8157134803
83.0936000888
81.4140897687
79.7772619999
78.1831309358
76.6315742813
75.1223837304
73.6554042695
72.2304860189
70.847446846
69.5060699197
68.2061697564
66.947514437
65.7297601155
64.5523835341
63.4146678727
62.315566396
61.253576577
60.226649757
59.2321864228
58.26704375
57.3276571241
56.4103363584
55.5116973943
54.6292847264
53.763171385
52.9102455895
52.0713563307
51.2480259899
50.4420019924
49.6551025055
48.8890794423
48.1455416537
47.4259176532
46.7314470359
46.0631965303
45.4220897551
44.8089472655
44.2245307808
43.6695914646
43.1449152857
42.6513595076
42.1898630877
41.7614035167
41.3669112007
41.0069186766
40.6818863502
40.3884209378
40.1348894607
1046.68733668
580.484399343
515.956365222
499.096281292
489.353802531
462.545743203
389.478833792
282.890696356
229.970488756
183.674630658
157.109197408
139.850331794
126.84748223
115.821701652
105.475047902
94.9814243809
84.3991574628
75.0291946319
67.7634271102
62.5154630798
58.6289936924
55.5472048568
53.0500679157
51.2583673348
50.5832177529
51.4891975894
54.1277036236
58.2594890455
63.4501748109
69.3224732239
75.6384421699
82.2493238475
89.0020013371
95.69078609
102.117214749
108.151184049
113.746858723
118.907160846
123.641327656
127.936973825
131.76138816
135.087375018
137.913160957
140.262408999
142.171250099
143.673738605
144.794571291
145.551773429
145.964189274
146.055629652
145.853180427
145.38360558
144.671281214
143.73889156
142.609153562
141.305194719
139.849124486
138.260845484
136.55797022
134.756428381
132.871000766
130.914964874
128.900118319
126.837079432
124.735841649
122.606023891
120.456270541
118.294214389
116.126603874
113.959708281
111.79947975
109.651240514
107.519507539
105.408130334
103.320624006
101.260289889
99.2300928146
97.2324282891
95.2692354963
93.3422191082
91.4529350275
89.6027145176
87.7924593564
86.0227035356
84.2937682902
82.605901601
80.9592742687
79.353950299
77.7899136655
76.2671573096
74.7856515063
73.3453312772
71.946079522
70.5877714508
69.2702135032
67.993098484
66.7559473199
65.5580825583
64.3985242654
63.2759055686
62.188394056
61.1336975303
60.1090765275
59.1114614799
58.1376734234
57.1847192563
56.2502415333
55.332107688
54.4298239486
53.543868713
52.6751515255
51.8249020324
50.9944773488
50.1852306226
49.3984351596
48.635236626
47.896637374
47.1835028799
46.4965842965
45.8365482335
45.2040145312
44.5995952476
44.0239345713
43.4777372822
42.9617758691
42.4768443891
42.0236845449
41.602665346
41.2141815603
40.854934676
40.5335057529
1305.35930057
721.756069267
639.222821814
612.297167493
580.827080379
502.114942429
379.124597982
309.889973629
252.41950376
217.360527812
193.003387128
173.4338129
155.576414316
137.658537144
119.817207568
104.381324127
92.5328622919
84.0403379239
77.7519704217
72.627233603
68.0234408542
63.5761829226
59.1374083081
54.787232418
50.7654782364
47.3097495991
44.5336163023
42.4101542285
40.9181127083
40.2023332223
40.6072802407
42.5236386593
46.1318888996
51.2753101555
57.5510989849
64.507148355
71.7997768207
79.2152963336
86.6150176504
93.8752556233
100.862954981
107.457346842
113.578619847
119.197640347
124.317520909
128.948128007
133.090736862
136.738544433
139.888269594
142.550138786
144.748209637
146.513768385
147.877440066
148.865300117
149.499942509
149.803754414
149.80076892
149.516019826
148.974144117
148.198642287
147.21210753
146.036717726
144.694060178
143.204390711
141.586137
139.856008801
138.02934925
136.120370497
134.141841044
132.105213255
130.020892382
127.898587316
125.747497732
123.575925878
121.391309712
119.200302611
117.009029042
114.823207016
112.647959875
110.487739973
108.346410074
106.227450866
104.134058898
102.069085472
100.034915785
98.0335348666
96.0666642246
94.1358326518
92.2423396666
90.387148642
88.5709221071
86.7941262867
85.0571328738
83.3602290975
81.7036108451
80.0873952845
78.5116816356
76.9765306152
75.4819578746
74.02792063
72.614339298
71.2410527938
69.9077876918
68.6141015559
67.3593589092
66.1426504617
64.9627280798
63.817951818
62.7062900579
61.6253470861
60.5724607534
59.5448873302
58.5400261984
57.5556900519
56.5893940461
55.6408116043
54.7102315677
53.7982162627
52.9056068501
52.0333872776
51.1825699805
50.3541248336
49.5489302952
48.7677551295
48.0112607354
47.2800167456
46.5745241071
45.8952459665
45.2426404061
44.6171940692
44.0194460181
43.4499916067
42.9094380155
42.3983403365
41.916909714
41.4654421194
41.0406936227
40.6512390758
1643.53564194
907.781849615
803.894137223
769.278454562
728.24614006
627.10001819
470.505266659
382.708963672
309.912154045
265.119344011
233.388344553
207.02874486
182.275111882
158.440275417
137.880393023
122.094035257
110.486140415
101.438072762
93.6699790918
86.4269005809
79.390947047
72.6532023832
66.5467253916
61.3499381595
57.1410734665
53.7303050923
50.821388109
48.1698484213
45.6172124177
43.0924025222
40.6106381058
38.2565250952
36.1573302773
34.4541054925
33.3172343364
33.0253783012
33.9879792283
36.5608654922
40.8282619221
46.5904446367
53.4843731436
61.1023059087
69.0777184011
77.1386168791
85.1060101722
92.8589020953
100.300271224