/*--------------------------------*- C++ -*----------------------------------*\
| =========                 |                                                 |
| \\      /  F ield         | OpenFOAM: The Open Source CFD Toolbox           |
|  \\    /   O peration     | Version:  2.3.1                                 |
|   \\  /    A nd           | Web:      www.OpenFOAM.org                      |
|    \\/     M anipulation  |                                                 |
\*---------------------------------------------------------------------------*/
FoamFile
{
    version     2.0;
    format      ascii;
    class       volScalarField;
    location    "200";
    object      k;
}
// * * * * * * * * * * * * * * * * * * * * * * * * * * * * * * * * * * * * * //

dimensions      [0 2 -2 0 0 0 0];

internalField   nonuniform List<scalar> 
10011
(
0.773329950739
1.11759138786
1.35500155277
1.50536796909
1.59453691462
1.64323757949
1.66624402844
1.67358840357
1.67191306291
1.66558283174
1.65750918235
1.64973450902
1.64385661442
1.64135145549
1.64188043586
1.64489181482
1.64808772574
1.72070197168
0.492772075845
0.515726750059
0.519700297302
0.51873731509
0.515087667264
0.509862500733
0.50401972068
0.498230795331
0.492897765944
0.488221202433
0.484254042754
0.480930614844
0.478063037264
0.474877298889
0.471514267658
0.467382179386
0.45850569886
0.439903184214
0.412179157152
0.424399939401
0.422229287834
0.414565470411
0.40464541117
0.393872035979
0.382989696945
0.372426685458
0.362430940407
0.353135085788
0.344591308467
0.336789984053
0.329708306312
0.323444053941
0.318020965832
0.313256899379
0.309033901842
0.305610482818
0.381902962564
0.385994349074
0.386374488796
0.383983385367
0.379837649069
0.374656645622
0.368920196302
0.362951544497
0.356972688159
0.351140880646
0.345579948247
0.340404617849
0.335678066584
0.331498767932
0.328033988239
0.325589206061
0.324723168602
0.326096098552
0.375246796843
0.375549137251
0.375007887695
0.373551527863
0.371341492257
0.368576943348
0.36544393856
0.362100084133
0.358675710235
0.355284711619
0.352026369574
0.348988342617
0.346281243485
0.344059065938
0.342558830428
0.342149698009
0.343292976766
0.34593193903
0.373465968402
0.372232386625
0.370965889106
0.369480402843
0.367748581082
0.365805912562
0.363711379648
0.361532214762
0.359338375806
0.357199572115
0.355188611091
0.353391808132
0.351922275193
0.350938533494
0.350665984941
0.351402997817
0.353405359629
0.35627367808
0.37297819666
0.371128374265
0.369432452499
0.36778553705
0.36614000269
0.364482443164
0.362820836642
0.361179355663
0.359593727118
0.358108474033
0.356780402371
0.355684041542
0.354919832053
0.354623409227
0.354969768732
0.356153242949
0.358264038232
0.360825897935
0.372862110495
0.370815073612
0.368937544882
0.36717942385
0.365509575745
0.363912024604
0.362383543199
0.360934262187
0.359585650651
0.358370640393
0.357335409591
0.356542929757
0.356077263179
0.356046302763
0.356576773264
0.357786976834
0.35968506215
0.361835312798
0.372824030252
0.370699866036
0.368735705568
0.366908671593
0.36520284596
0.363608714878
0.36212329409
0.360751978416
0.359509928707
0.358422776548
0.357528089274
0.356877479607
0.356538213203
0.35659201876
0.357126199165
0.358206927336
0.359801651427
0.361533924336
0.372808984473
0.370650966919
0.368641585942
0.366770294389
0.365030454215
0.363419133171
0.36193636375
0.360587390543
0.35938452045
0.358348231921
0.357508288082
0.356904672491
0.356587288858
0.356612568471
0.357033803176
0.357879173599
0.359097621159
0.3603864451
0.372802753043
0.370629537019
0.368596970778
0.366699159013
0.364933096686
0.363298853789
0.361798738495
0.360438536351
0.359228932435
0.358186386581
0.357333683446
0.35669992671
0.356319152915
0.356226356711
0.356449281385
0.356992930682
0.357804620128
0.358656318379
0.372800232103
0.370618949704
0.368572777879
0.36665756806
0.364871072045
0.363213768158
0.361688264378
0.36029979584
0.359057027538
0.357972479258
0.357062521135
0.356346750358
0.355846246184
0.355580088067
0.355559530441
0.355778436882
0.356192078356
0.356637382434
0.372799881373
0.37061350512
0.36855762605
0.366628802687
0.364824663267
0.363144977426
0.36159139953
0.360167604448
0.358879630896
0.357735952439
0.35674714607
0.355925042837
0.355281142624
0.35482408297
0.354556064537
0.354467547444
0.354524942355
0.354616222121
0.372801187034
0.370611434534
0.368547908778
0.366607307701
0.364786916494
0.36308554415
0.361503496083
0.360042570951
0.358706128185
0.357498968928
0.356426907966
0.355495995867
0.354711332592
0.354075474741
0.353586483224
0.353235203895
0.352998387937
0.352801397614
0.372803748052
0.370611907763
0.368542367223
0.366591556812
0.364756308352
0.363034515076
0.361425195634
0.359928445811
0.358545373831
0.357277907754
0.356128409482
0.355099085381
0.35419121295
0.353404233114
0.352734778822
0.35217533412
0.35171066922
0.351292359474
0.372807001819
0.370614049425
0.368539963763
0.366580657533
0.364732431301
0.362992382117
0.361358467427
0.359829445521
0.358404760753
0.357084348054
0.35586832848
0.354756607898
0.353748408613
0.352841783167
0.352033154511
0.351316675622
0.350682766304
0.350101028268
0.372810158571
0.370616682002
0.368539267453
0.366573217093
0.364714289842
0.362958931668
0.36130430874
0.35974823538
0.358289052668
0.356925451514
0.355656244728
0.354480095789
0.353395238576
0.352399210541
0.351488634817
0.350658929809
0.349904229662
0.349206386932
0.372812239777
0.370618345988
0.368538471153
0.366567383957
0.364700406131
0.362933534909
0.361263429935
0.359687329845
0.35820293448
0.356808248891
0.355501403174
0.354280457111
0.35314321657
0.352087069691
0.351108873021
0.350204836361
0.349371303859
0.348597818907
0.372812923678
0.370618454971
0.368536648106
0.366561900664
0.364689284758
0.362914570511
0.361234155641
0.359644978645
0.358144404379
0.35673008404
0.355399795443
0.354151294098
0.352982173373
0.351889756375
0.35087102476
0.349922601319
0.349042042038
0.348223382951
0.372812730269
0.370617580405
0.368534126981
0.366556557023
0.36467989342
0.362899854571
0.361212732088
0.359615317933
0.358104801771
0.356678627838
0.355334359361
0.354069550661
0.352881646284
0.351767892163
0.350725299365
0.349750666699
0.348842198809
0.347996572334
0.372812226404
0.370616469783
0.368531655276
0.366551979883
0.364672661358
0.362889499303
0.36119875019
0.359597110786
0.35808161354
0.356649488974
0.355298048876
0.354024594961
0.352826339517
0.351700345786
0.350643505841
0.349652599042
0.348726113882
0.347862392528
0.372811953748
0.370616418994
0.368531784578
0.366552706565
0.364674824414
0.36289390516
0.361205889889
0.359607006379
0.358093698173
0.356662540171
0.355310194351
0.354033369683
0.352828776492
0.351693089523
0.350622937138
0.349614970144
0.348667820134
0.347781066533
0.372813579389
0.370623735049
0.368549042655
0.366584798387
0.36472589284
0.3629661171
0.361299081165
0.359718732317
0.358219454504
0.356796119652
0.355444109235
0.354159267639
0.35293781696
0.351776266954
0.350671356626
0.349620059267
0.348621622619
0.347677703453
0.372827722397
0.370676241913
0.368660721859
0.366769315857
0.364986287981
0.363294937086
0.361680894476
0.360132972176
0.358642848638
0.357204574197
0.355814039656
0.354468444834
0.353165853114
0.351904861333
0.350684388186
0.349503578835
0.348363886457
0.347270759942
0.372923693638
0.370973925657
0.369206436735
0.367554777804
0.365964117839
0.364397361697
0.362834435271
0.361267175377
0.359694532856
0.35811937324
0.356546436558
0.354981069913
0.353428511734
0.351893537364
0.350380334022
0.348892500903
0.347435243867
0.346020303658
0.37348135121
0.372383410798
0.371377285834
0.37024297246
0.368898619658
0.367338727516
0.365593173777
0.363701650378
0.361702128963
0.359627341617
0.357504310814
0.355354872442
0.353196494389
0.351043104972
0.348905840775
0.346793678803
0.344715933965
0.342690165798
0.376467289071
0.378249605634
0.378882519144
0.378248658183
0.376643544509
0.374369031764
0.371646634629
0.368629401953
0.3654228497
0.362101107002
0.35871766645
0.355312118615
0.351914366084
0.348547319699
0.345228683226
0.341972188022
0.338789849146
0.335703828239
0.392537958025
0.401174071014
0.401931865268
0.399251254578
0.39502761086
0.390056663867
0.384715442972
0.379200811737
0.37362829626
0.368074821834
0.362596421606
0.357235608
0.352024790932
0.346988146139
0.342142790987
0.337499488853
0.333063235768
0.328845446305
0.438449283718
0.450018593912
0.451120252666
0.449975021335
0.448326235166
0.446464326243
0.444471437244
0.442390735174
0.44025476533
0.438096714795
0.435950775335
0.433848767418
0.431817463679
0.429877214179
0.42804108346
0.426312879575
0.424678391338
0.423088556256
0.544762693427
0.70531652901
0.836234285392
0.945654983967
1.04096485004
1.12179910666
1.18865064602
1.24260248797
1.28505770604
1.31752641338
1.34148834494
1.3583151146
1.36923264522
1.37530928551
1.37745965418
1.37645674113
1.37295696294
1.36742768346
0.221921599732
0.202855217276
0.185181086623
0.17569440344
0.170023670488
0.1665835959
0.164652390133
0.1638720491
0.163979193221
0.164753412849
0.166015424115
0.167620900065
0.169452805902
0.171417028044
0.17344007117
0.175466971197
0.177458796464
0.179389746185
0.181244341337
0.183014445154
0.184698120986
0.186304992539
0.187835299355
0.189275433845
0.190602555586
0.191776327498
0.192711100582
0.193275864818
0.192613273134
0.253660525869
0.232731565361
0.221118144083
0.200688364935
0.195941903951
0.194790303308
0.193200231473
0.192862279721
0.194294520342
0.19709558736
0.200797234932
0.205063058819
0.209641938793
0.214333330395
0.218982476414
0.223479948427
0.227757037507
0.231778762668
0.235536193937
0.239039537425
0.242311711507
0.245384496262
0.24829561482
0.25108916822
0.25377517864
0.256360549936
0.258861000893
0.261292845909
0.263684947635
0.266106320168
0.268837706853
0.273264811297
0.290516819647
0.26817932247
0.253303157765
0.244120311296
0.224981680049
0.222493220832
0.228529010109
0.239297268563
0.252182277603
0.262231422612
0.267026669395
0.269391650596
0.271262279716
0.273143956042
0.275121886448
0.277244350137
0.279537396841
0.281992464293
0.284579598473
0.28726319847
0.290011228212
0.292799780321
0.295612911356
0.298441664183
0.301285259071
0.304145724973
0.307013271916
0.309879259319
0.31275637905
0.315660536386
0.31861171863
0.321642055202
0.324818657571
0.328287442657
0.332412646302
0.338375720627
0.324994121123
0.303257323362
0.288473275093
0.278941228051
0.255952985425
0.248110947884
0.247631261806
0.255461512554
0.268820254248
0.283835283225
0.298900462032
0.313533977073
0.327005026751
0.337332075559
0.342850061478
0.345186826973
0.346164698551
0.346571579834
0.346719041276
0.34681159702
0.346996895566
0.347363741226
0.347958067277
0.348801591967
0.349903430357
0.351266993043
0.352887286621
0.35474565323
0.356803360966
0.359032175286
0.361423708829
0.363972272622
0.366677170921
0.369544767607
0.372592387782
0.375857802476
0.379422689129
0.3834494515
0.3882646781
0.394664140222
0.361257576538
0.34017178046
0.325639565286
0.316411535777
0.291712596927
0.283123448411
0.282052318461
0.289292276041
0.301312992066
0.313805024517
0.325747750879
0.338675027768
0.352521350821
0.366067177184
0.378908830545
0.390706697556
0.401133778488
0.409066898043
0.413403614663
0.414945692739
0.41500206243
0.414312461757
0.413231503572
0.411996474351
0.410787786458
0.409732143783
0.40891604048
0.408403151152
0.408241314456
0.408468376407
0.409046217219
0.409949292276
0.411169656141
0.41269520084
0.414514329139
0.416617794765
0.419000776816
0.421666144954
0.424630218489
0.427932873796
0.431657854329
0.43595630288
0.441084960455
0.447548856327
0.398520444146
0.378359595132
0.36438217479
0.356029363584
0.330464286501
0.322195805689
0.321621874489
0.329770479301
0.342907340936
0.35620134957
0.368371702218
0.380921595135
0.393642646675
0.405335512107
0.416109584618
0.42660834072
0.436877254628
0.446673016319
0.455894594697
0.46430905926
0.471602058728
0.477010892376
0.479804299342
0.480359275473
0.479547650287
0.47797780567
0.475988376105
0.473812699624
0.471633084691
0.469588118428
0.467785656692
0.466322641615
0.465265641342
0.464578673396
0.464280796958
0.464377723254
0.464869028052
0.465750219
0.467014797722
0.46865654663
0.470672407563
0.473066524501
0.475856634925
0.479083565249
0.482826724843
0.487214778596
0.492434062189
0.498800485482
0.452065431737
0.43133376767
0.41552117642
0.402763142379
0.396063291161
0.371125634598
0.364535788112
0.365514199014
0.375529007925
0.390708463399
0.405715453803
0.419083824086
0.432499126035
0.445832460443
0.457759991555
0.468252402751
0.477931881386
0.486853569369
0.494888838188
0.502318966487
0.509443196242
0.516263826509
0.522722253348
0.528760807189
0.534214466122
0.53879962239
0.541973608841
0.543242499058
0.542774115436
0.541134677891
0.538796979022
0.536062467529
0.533148109646
0.530227889774
0.52744405897
0.524922488347
0.52277210724
0.520969505024
0.519554427862
0.518553304327
0.51798235668
0.517850334491
0.518160660777
0.518913465539
0.52010798457
0.521745612268
0.523834161877
0.526393996073
0.529466058734
0.533122110393
0.537465305701
0.542620386587
0.548787425528
0.512201760113
0.491504252468
0.474984392151
0.461875038995
0.455435347485
0.427488496636
0.417008655908
0.410977340288
0.412998954549
0.425701327144
0.444069661648
0.461677274684
0.476950921167
0.491852609081
0.506396943241
0.519200453719
0.530153879521
0.539965939767
0.548745823129
0.556336828319
0.562942781077
0.568853057041
0.574117216705
0.578793601635
0.58309647006
0.587194953847
0.591084933808
0.594741165514
0.598112939443
0.601070361099
0.603372363808
0.604623833682
0.604481572357
0.603009385576
0.600571954391
0.597526642033
0.59413153706
0.590582952208
0.587044606148
0.58366517307
0.580590133369
0.577812342266
0.575388288044
0.573359691246
0.571757699877
0.570604760383
0.569916192281
0.56970185845
0.569967999439
0.57071950798
0.571962860529
0.573710134645
0.575984373508
0.578825687494
0.582296617481
0.586475895217
0.591437712792
0.597315992017
0.579410903717
0.55876542838
0.541449285398
0.528278197026
0.52313678317
0.49420222477
0.484313119962
0.478307367839
0.480562604048
0.494035349152
0.51272011361
0.528907729798
0.540909893433
0.552110937127
0.56502209466
0.578863803234
0.591470174553
0.602399950808
0.612217001882
0.620961951632
0.628407858143
0.634656650356
0.639997281545
0.644489279906
0.648171940867
0.651215085841
0.653785511686
0.655930487685
0.657727752928
0.659323084883
0.660821851019
0.662223174212
0.663504563487
0.664616705335
0.665448163383
0.66580042843
0.665380788411
0.663943037078
0.661499060929
0.658282511202
0.654559067166
0.650544027706
0.646412290459
0.642319801592
0.638433666249
0.63480208703
0.63146476895
0.628479544573
0.625891071422
0.623734049405
0.622034947905
0.620813570787
0.62008458794
0.619859247914
0.620147415038
0.620960264625
0.622313776485
0.624233105189
0.626756648619
0.629937344947
0.633832639737
0.63847689183
0.643970133278
0.652427857973
0.632108415443
0.614113683217
0.601296240598
0.59839638436
0.569577095416
0.561768700183
0.557026114486
0.560865935768
0.576917983016
0.598571140354
0.617088323099
0.630313882203
0.641989254828
0.654867521532
0.667963878599
0.678760220073
0.687066085278
0.694202519467
0.701214554692
0.707976928684
0.713946007509
0.719021395655
0.723341136526
0.726876447824
0.72959712299
0.731589553209
0.732988399624
0.733830574572
0.734175799929
0.734143196458
0.733840511883
0.733311269851
0.732620340556
0.731862908248
0.731106528959
0.730350435534
0.72957208459
0.728722247852
0.727702810442
0.726351539666
0.724447506182
0.721808546556
0.718420694425
0.714432262008
0.710038455607
0.705415770607
0.700719792551
0.696103575265
0.691706343747
0.687528826945
0.683644449442
0.680109898143
0.676970486229
0.674262368472
0.67201415927
0.6702484796
0.668983389919
0.668233945923
0.668014017694
0.668338649354
0.669226959516
0.670705410089
0.672810061725
0.675584686397
0.679069435911
0.683268280868
0.688267262486
0.726144210939
0.707210989194
0.689335723202
0.677922931871
0.678833696466
0.651948543068
0.648303832523
0.646383063417
0.653144478469
0.673060500669
0.698905649286
0.720901798567
0.736355069256
0.749550794307
0.763691546205
0.77782570828
0.789213425962
0.797435520398
0.803901559686
0.809735817125
0.814782244044
0.818441157288
0.820862658079
0.822586126635
0.824003278352
0.825093844616
0.825726544894
0.825888757075
0.825615230435
0.824873009776
0.823666324593
0.822053260045
0.820106092886
0.81785270825
0.815341472423
0.812652189805
0.809857825981
0.806996754892
0.804116760649
0.801279642368
0.798528145671
0.79586129998
0.793254355778
0.790659422196
0.787990094497
0.785112896665
0.781858049533
0.778086556221
0.773772261216
0.769007479275
0.763934252392
0.758696051907
0.7534351546
0.748316569856
0.743347259373
0.738606380701
0.734158418602
0.730056977235
0.726346316316
0.723062601222
0.720235346234
0.717888786898
0.716043224862
0.714716407881
0.713925186838
0.713687491394
0.714024667478
0.714963664967
0.716537845372
0.718782765763
0.721725362964
0.725347151029
0.729731574482
0.810887853968
0.792962984639
0.773202178426
0.755755139122
0.747936374072
0.755934972393
0.735149059264
0.739556847869
0.743333365236
0.755325630477
0.781049772299
0.812698543703
0.839467903755
0.858126479098
0.873599038543
0.889644835627
0.905425360835
0.91803620301
0.926833077744
0.933388351318
0.938998676131
0.943566357833
0.94645535405
0.94770646087
0.9478622798
0.947339953838
0.946135091622
0.944144508601
0.941527341302
0.938542325089
0.935350911858
0.931955022486
0.928330476414
0.92449032125
0.920448117813
0.916183637732
0.911702737015
0.907042334984
0.902245228102
0.897334685872
0.892345693149
0.887331703149
0.882343199515
0.877412698868
0.872574284461
0.867867299823
0.863318163043
0.858923808672
0.85465905634
0.850477574725
0.846303453937
0.842026215196
0.83751288434
0.832654243139
0.827419087881
0.821862867906
0.816088168793
0.810212821158
0.804373259416
0.798667356073
0.793108832748
0.787775799847
0.782731081285
0.778026665812
0.77370559377
0.769803476945
0.766349967155
0.763370050672
0.760885309311
0.75891520085
0.75747854079
0.756595154921
0.756287663501
0.756582768552
0.757510950014
0.759100749656
0.761369584083
0.764282975968
0.767927568749
0.870178684276
0.857970879706
0.842110515276
0.828299973897
0.825964933939
0.84212861587
0.827117217057
0.837494962104
0.840638836928
0.845666437519
0.863142401883
0.89663243001
0.936197683292
0.969473627656
0.992726050425
1.01160638463
1.03050225965
1.04874111036
1.06327846367
1.07327542497
1.08047258506
1.08637315814
1.09097477586
1.09363988991
1.09431423964
1.09357296291
1.09189776879
1.08932402044
1.08574227448
1.08126319669
1.07613638384
1.07053898052
1.06450283928
1.05804955593
1.05130190946
1.04440429416
1.03743491639
1.03040220197
1.0233078656
1.01616787097
1.00899247296
1.00177372182
0.994516115297
0.987242734484
0.979981528775
0.972751939694
0.965579248327
0.958499103493
0.951547497714
0.944750129261
0.938131226702
0.931715247069
0.925517696295
0.919532956684
0.913735949833
0.908083118841
0.902507524794
0.896917147231
0.891205966239
0.885286061464
0.87912468464
0.872753075949
0.86624539247
0.859703187274
0.853254617211
0.846891569772
0.840690295505
0.834716441944
0.829027088176
0.823670842379
0.818688596235
0.814114740467
0.809978372568
0.806304486787
0.803115110371
0.800430528758
0.79827056987
0.796656007016
0.795609829405
0.795157849156
0.795327606892
0.796141855637
0.79761158661
0.799691515283
0.80247374253
0.843042327041
0.845921907683
0.84237483832
0.83676593809
0.834819591256
0.8468542479
0.880396351641
0.883173472695
0.91305228868
0.9307935227
0.947715509547
0.976112692875
1.02014106558
1.06881029839
1.10813398081
1.13326336934
1.15054024303
1.16707678449
1.18615510308
1.20583284504
1.22211543504
1.23363829215
1.24204180157
1.2488933148
1.25420719192
1.25730390573
1.25803023609
1.25697932316
1.25470807471
1.25130909234
1.24669008304
1.24092747232
1.234274532
1.22693792845
1.21897632098
1.21041476265
1.20135715547
1.19194428144
1.18226988965
1.17237332011
1.16230041725
1.15213635538
1.14197184459
1.1318528962
1.12179008488
1.11179078909
1.10186749742
1.09203096317
1.08228055385
1.07262064021
1.06306569043
1.05363555181
1.04434606702
1.03521577384
1.02626895237
1.01753126875
1.00902243823
1.00075925931
0.992756679976
0.985022435651
0.97754863193
0.970310917206
0.96326889637
0.956363797325
0.949518252644
0.942646236897
0.935675564712
0.928573689574
0.921356110292
0.914078591843
0.906837229455
0.899677687012
0.892615707469
0.885720745423
0.879053141812
0.872665529438
0.866603063006
0.860904147997
0.855601462142
0.850722980237
0.846293040878
0.842333401643
0.838864369526
0.835905939984
0.833478951452
0.831605971008
0.830311367064
0.829619775383
0.82954927053
0.830106854878
0.831240565204
0.833048130157
0.657957748343
0.678237005016
0.694718867687
0.708883107467
0.725945800858
0.756667742688
0.810016882238
0.837508369176
0.893242446321
0.931374308962
0.961324437186
0.994996413341
1.04192566187
1.10474241741
1.17136582251
1.2268350589
1.26512025908
1.29295797791
1.31822444561
1.3446751498
1.37029128871
1.39059589302
1.40399685213
1.41263286114
1.41935794006
1.42565757654
1.43111124281
1.43461711823
1.43573198011
1.43491253319
1.43268232829
1.42912434981
1.42412309434
1.41770975927
1.41013067246
1.40162471403
1.39228613995
1.38215691839
1.37133284175
1.3599550769
1.34813516137
1.33593147387
1.32339716306
1.31061485573
1.2976768744
1.28464539209
1.27155837135
1.25845984776
1.24540850504
1.23246498867
1.2196608838
1.20700751124
1.1945128495
1.18218623611
1.17003765427
1.15807035332
1.14628885424
1.13470325127
1.12332781964
1.11217544178
1.10125988866
1.09059834264
1.08020893714
1.07010621044
1.06030154209
1.05080379321
1.04161514242
1.03272601951
1.02411304754
1.01573928993
1.00755303901
0.999488875055
0.99147581121
0.983453453972
0.975390326518
0.967292196031
0.959206100379
0.951206987594
0.943265456344
0.935443016203
0.927796761891
0.920379688219
0.913239087434
0.906416107836
0.89994618746
0.893859758855
0.888183121048
0.882939349427
0.878149293406
0.873832570043
0.870008603553
0.866697534382
0.863920844652
0.861701024898
0.860059888788
0.859011781798
0.858561533232
0.858653794771
0.859391049581
0.467289959333
0.473196916915
0.486264287803
0.50086145995
0.516696674661
0.539636039222
0.581941073934
0.616333254479
0.685767362736
0.747452584223
0.80539842803
0.869227526096
0.947536560127
1.04243054813
1.14135697956
1.22737788368
1.2914487842
1.33921201687
1.37938384573
1.41869056805
1.45976940503
1.49974221914
1.53336697738
1.55840394266
1.57687245124
1.59181814831
1.60490429732
1.61574388491
1.62312800736
1.62665994607
1.62717874828
1.6258560494
1.6233918676
1.61979191219
1.61478824493
1.60827593678
1.60042623994
1.59144781328
1.58142962964
1.57040439285
1.55845135753
1.54570757157
1.53230436528
1.5183255481
1.50383992572
1.48893437024
1.47370407561
1.45822478564
1.44254984306
1.42673261921
1.41083721567
1.39492994791
1.37905793856
1.3632554148
1.34755911573
1.33201064484
1.31665195541
1.30150652483
1.2865853546
1.27189588803
1.25744576465
1.24324334835
1.22929339808
1.21560046492
1.20217258821
1.18902014859
1.1761533812
1.16358272767
1.15132074561
1.13938013851
1.12777131581
1.11650162287
1.10557571155
1.09499218265
1.08474019838
1.07479763551
1.06513102765
1.05569490264
1.04643344531
1.03728715453
1.0282045457
1.01915541964
1.010141341
1.00121174877
0.992353868536
0.983580824951
0.974944264819
0.96649389143
0.958276191081
0.950333010168
0.94270115037
0.935412602319
0.928495047969
0.921972573016
0.915866459447
0.910196073497
0.904979754505
0.90023572361
0.895982822619
0.892240917002
0.88903033305
0.886370164439
0.884271820658
0.882739210265
0.881716227727
0.881308911722
0.453585785816
0.446443498144
0.449560664042
0.455634536144
0.461161963716
0.46241872125
0.453658432025
0.437567631642
0.411651283074
0.411565713939
0.428863814289
0.459661611787
0.50988658656
0.588808637366
0.700059283978
0.831742766012
0.962215478008
1.07462825463
1.16960606915
1.25428973212
1.33516436323
1.4149860686
1.49076216639
1.55641287168
1.60884591145
1.65002214137
1.68388310016
1.71379679918
1.74126328197
1.76560198069
1.78526684947
1.79958871334
1.8093301289
1.8157372888
1.81961723708
1.82105234007
1.81981437797
1.81591891481
1.80981048556
1.8020558633
1.79304327517
1.78289947861
1.77162520252
1.75924975149
1.74587788169
1.7316290442
1.71658836256
1.70082553286
1.68442650801
1.6674880784
1.65010207661
1.63234227124
1.61427712374
1.59598073977
1.57752538109
1.55897047774
1.54036377886
1.52175243349
1.50318676444
1.48471691442
1.46638063617
1.44820769914
1.43022771749
1.41247129369
1.39496812852
1.37773648006
1.36078632599
1.34412443299
1.32775746532
1.31169220461
1.29593361959
1.2804861689
1.26535655208
1.2505526206
1.23608244101
1.22195399993
1.20817657141
1.19475910838
1.18170874639
1.16902993247
1.15672429632
1.14478810681
1.13320994661
1.12196899328
1.11103507579
1.10036818626
1.08992042113
1.079641143
1.06948554693
1.05942460668
1.04945993021
1.03961480029
1.02984389594
1.02018875049
1.01069117238
1.00139289242
0.992333389447
0.983548615104
0.975070565354
0.96692729052
0.959143252705
0.951739857198
0.944736146312
0.938149534842
0.931996619165
0.926293930654
0.921058569248
0.916308414476
0.912061473314
0.908334256157
0.905135864692
0.902470059592
0.900281995093
0.898680209102
0.496056821813
0.485249236558
0.486262154055
0.491166100427
0.496492008613
0.500176102487
0.498181733151
0.48265769725
0.452135453566
0.402897708529
0.363624981929
0.339976850092
0.323867215883
0.311680068502
0.303140139059
0.302198163251
0.318815595874
0.364047245681
0.439976545438
0.537804378057
0.650290960347
0.773721043436
0.905825221711
1.04355618119
1.18028419027
1.30650618068
1.41607412524
1.50938323501
1.59031683383
1.66275109206
1.7287387006
1.78788889829
1.83851462495
1.87974503796
1.91247942474
1.93860832032
1.95993176773
1.97746580897
1.99132297917
2.00120431882
2.00703777387
2.00923388276
2.00841244426
2.00505635006
1.99939069846
1.99151059299
1.98157090339
1.96986526937
1.9567259689
1.9424105145
1.92707227035
1.91080039636
1.89367581772
1.87578888934
1.85723159427
1.83808476355
1.81842393197
1.79833022088
1.77788184551
1.75715244388
1.73620717422
1.71510787933
1.6939171561
1.67269330398
1.65148589666
1.63033703014
1.60928708421
1.58837649167
1.56764410669
1.54712093196
1.52683226006
1.50680191078
1.4870530946
1.46760737844
1.4484792785
1.42967760297
1.41120845741
1.39307768745
1.3752908826
1.35785271089
1.34076737057
1.32404045917
1.30767816275
1.29168682572
1.27607265045
1.26084248765
1.24600257057
1.23155768316
1.21751007559
1.20385927709
1.19060009478
1.17772092813
1.16520244384
1.1530174694
1.14113093661
1.12950148401
1.11808552931
1.10684320371
1.09574698449
1.08480356941
1.07396318479
1.06324284491
1.05267192902
1.04228284219
1.03210880334
1.02218187109
1.01253179083
1.00318541273
0.994166517237
0.985496005784
0.977192287634
0.96927183295
0.961749787933
0.954640666814
0.94795899673
0.941719838034
0.935938892643
0.930631801439
0.925812682322
0.921488783536
0.917664064023
0.914286115686
0.911465284053
0.595384751549
0.580922641375
0.582936598215
0.588951848335
0.593053963058
0.588147717513
0.562208044609
0.51577967265
0.449655806567
0.393696005874
0.361618466761
0.340572878176
0.324417275357
0.310520935529
0.297589020309
0.285163261251
0.273863122202
0.264883937308
0.25947398859
0.257025734251
0.257651326167
0.263220873876
0.279091173149
0.315784600482
0.386411982309
0.497175034502
0.639203165459
0.794373238933
0.948856357731
1.09722824168
1.23857534006
1.37254593019
1.49725179621
1.60962059289
1.70767507347
1.79183828563
1.86422747482
1.92713706954
1.98202444305
2.0292685225
2.06868558629
2.10035039598
2.12499520755
2.14375780218
2.15773200315
2.16764620574
2.17382888788
2.17641171241
2.17557921786
2.17167046271
2.16508672351
2.15616749068
2.14515292886
2.13222975813
2.11759854806
2.10149777416
2.08416416026
2.06579077427
2.0465204819
2.02646257563
2.00571460201
1.98436589795
1.96250026636
1.94019447067
1.91752173221
1.89455701986
1.87136906972
1.84802190437
1.82457357152
1.80107896896
1.77759201943
1.7541619781
1.73083158992
1.70763788859
1.68461552703
1.66179800975
1.63921666736
1.61689734091
1.59486148478
1.57312854998
1.55171679405
1.53064265199
1.50991784949
1.48955010332
1.46954495214
1.44990760444
1.43064299951
1.41175553019
1.39324926759
1.37512914561
1.35740035492
1.34006819884
1.32313766448
1.30661398567
1.29050162173
1.27480366947
1.25952095689
1.24465167531
1.23018983504
1.21612411737
1.2024366869
1.18910323256
1.17609296738
1.1633701686
1.15089716322
1.13863833657
1.1265656066
1.1146494186
1.10288154014
1.09127429618
1.07984675913
1.06862258477
1.05762717597
1.04688574669
1.03642218133
1.02625830338
1.0164136103
1.00690532387
0.997748684148
0.988957353854
0.980543953413
0.972520618985
0.964899582754
0.95769357675
0.950915910078
0.944579732903
0.93869678421
0.933272534367
0.92831084514
0.923761449231
0.919735755563
0.655501474706
0.637975481146
0.639116405793
0.643541163103
0.641192155724
0.619366054163
0.575459159946
0.501813391762
0.443069652567
0.406879713021
0.381270212603
0.360220325776
0.340858521412
0.321996932909
0.30434989738
0.289665701226
0.279215132895
0.271697017935
0.26583848388
0.260852651316
0.256447346724
0.252674744537
0.249821207151
0.248242704785
0.248186515618
0.250026711663
0.255057206014
0.266478602903
0.290796073915
0.338724550869
0.421886896719
0.544574238448
0.69905397499
0.869834996503
1.04193901121
1.20594015762
1.35816901846
1.49807585548
1.62583699528
1.74117478521
1.84341962839
1.93232528937
2.00856621967
2.07356444286
2.12887242651
2.17567448528
2.21466985007
2.24628420441
2.27099092118
2.28947978184
2.30257130075
2.31103821596
2.31547130357
2.31627012746
2.31372743538
2.30812755137
2.29978685202
2.28902335782
2.27611719403
2.26130328833
2.24479076377
2.22678593046
2.2074961447
2.18711363549
2.16580059991
2.14368974266
2.12089308642
2.09751168297
2.07363441735
2.04934193842
2.02470856736
1.99980471535
1.97470001767
1.94945758838
1.92413567979
1.89878737286
1.87346245803
1.84820880828
1.82306975814
1.79808341396