/*--------------------------------*- C++ -*----------------------------------*\
| =========                 |                                                 |
| \\      /  F ield         | OpenFOAM: The Open Source CFD Toolbox           |
|  \\    /   O peration     | Version:  2.3.1                                 |
|   \\  /    A nd           | Web:      www.OpenFOAM.org                      |
|    \\/     M anipulation  |                                                 |
\*---------------------------------------------------------------------------*/
FoamFile
{
    version     2.0;
    format      ascii;
    class       volScalarField;
    location    "200";
    object      nut;
}
// * * * * * * * * * * * * * * * * * * * * * * * * * * * * * * * * * * * * * //

dimensions      [0 2 -1 0 0 0 0];

internalField   nonuniform List<scalar> 
10011
(
3.09416046984e-05
3.7195500525e-05
4.09540753133e-05
4.31631915631e-05
4.44176825339e-05
4.50825826899e-05
4.53847874053e-05
4.54667821597e-05
4.5418175953e-05
4.52951001835e-05
4.51323685757e-05
4.49509838482e-05
4.47625082111e-05
4.45706288235e-05
4.43425537365e-05
4.4019643191e-05
4.34758958769e-05
4.03442004902e-05
0.000116754734025
6.95282190853e-05
5.17754107712e-05
4.25858829434e-05
3.73224384569e-05
3.40857482607e-05
3.1988795232e-05
3.05839905844e-05
2.96269637767e-05
2.89746019902e-05
2.85380419e-05
2.82593660893e-05
2.81000222584e-05
2.80451395155e-05
2.80264746891e-05
2.79440413242e-05
2.770070697e-05
2.68313419388e-05
0.000365666066974
0.000224200185006
0.000163714843657
0.000129433166912
0.00010781138464
9.32800273702e-05
8.30249682847e-05
7.55187418195e-05
6.9882780354e-05
6.55862907882e-05
6.23009330086e-05
5.98290977868e-05
5.81898753193e-05
5.71297722018e-05
5.6489223787e-05
5.63920680638e-05
5.71794438018e-05
5.94592501467e-05
0.000645082349114
0.000480387351066
0.000380890415537
0.000316549003836
0.000272405363924
0.000240851351619
0.000217555403629
0.000199931307319
0.000186380933852
0.000175895938458
0.000167909849932
0.000162162757353
0.000157761838699
0.000154646488082
0.00015289724392
0.000152840869461
0.000155149918456
0.000160696055749
0.000789525748816
0.000697852230689
0.000614162211763
0.000545745983028
0.000491411840737
0.000448486999495
0.000414441062101
0.00038727630891
0.000365534818237
0.000348335052567
0.000334732613427
0.000323844852384
0.000315356445511
0.000309158952672
0.00030536052896
0.000304322217966
0.000306615282247
0.000312505761477
0.000836249262921
0.000802606826222
0.000760356788768
0.000716643981251
0.000675399551102
0.000638341405421
0.000605930364907
0.000578050109512
0.000554528371316
0.000534602545745
0.000517818962931
0.000503893801167
0.000492662413622
0.000484100463311
0.000478340687012
0.000475663611001
0.000476355115371
0.000480125313504
0.000848398061731
0.000838762234878
0.000823566972764
0.000804445066997
0.000783253013125
0.000761545541689
0.00074045048761
0.000720719887904
0.000702519954898
0.000686069113401
0.000671475640862
0.000658816232012
0.000648179222454
0.000639695474521
0.00063355124897
0.000629959770965
0.000629007929442
0.000630201477246
0.000850844954305
0.00084764518482
0.000841997735296
0.000833972924112
0.000824050555076
0.000812883352723
0.000801117000291
0.000789229492341
0.000777624538561
0.000766625305791
0.000756490952908
0.000747443551967
0.000739692430103
0.000733450908789
0.000728936090941
0.000726331399667
0.000725652025705
0.000726414753139
0.000851474387065
0.000850284298363
0.000848210599613
0.000845067808298
0.000840866210966
0.000835765928114
0.000829978706969
0.000823760271581
0.000817366675416
0.000811042359656
0.00080501708612
0.000799509635603
0.00079473329783
0.000790897513001
0.000788197202765
0.000786774539813
0.000786612102148
0.000787289671944
0.000851636474124
0.00085106297738
0.000850274143876
0.000849155929862
0.000847645866293
0.000845732354736
0.00084345354989
0.000840886577203
0.000838136720634
0.000835328476957
0.000832599556291
0.000830097271135
0.000827975113014
0.00082638605824
0.000825467301403
0.000825306900477
0.000825865668719
0.000826801280758
0.000851668143887
0.000851240739764
0.000850807532636
0.000850330321805
0.000849777994774
0.000849133064956
0.000848393806623
0.000847576261543
0.000846714543932
0.000845859566439
0.000845077121566
0.000844445346792
0.000844050558339
0.00084397973049
0.000844307070369
0.000845069642936
0.000846214472103
0.000847472098308
0.000851671706224
0.000851266506841
0.000850901448098
0.000850569637423
0.000850265253936
0.000849986134439
0.000849734501754
0.000849518704174
0.000849354837098
0.000849267429006
0.000849289216182
0.000849459829218
0.000849822764404
0.000850419805575
0.000851281935399
0.000852414152994
0.000853762058454
0.000855121052188
0.000851671960461
0.000851264959345
0.000850901857377
0.000850584153998
0.000850314033705
0.000850095903681
0.000849936379965
0.000849844817182
0.000849834062458
0.000849920770445
0.000850125088187
0.000850469528257
0.000850976722414
0.000851665741155
0.000852546741458
0.000853612497549
0.000854818207974
0.000856016322576
0.000851673453247
0.000851262481376
0.000850891293584
0.000850562867727
0.000850280605942
0.000850049537461
0.000849876343535
0.000849769445987
0.000849739186299
0.000849797746026
0.000849958626822
0.00085023562126
0.000850641172154
0.000851184110852
0.000851866752706
0.000852680460723
0.000853593734155
0.000854505393546
0.000851676461812
0.000851262733313
0.000850883959582
0.000850542924913
0.000850242629583
0.000849987146094
0.000849781732376
0.000849632808753
0.000849547910224
0.000849535457173
0.000849604252197
0.000849762679914
0.000850017630672
0.00085037320455
0.000850829249755
0.000851379102162
0.000852002837685
0.000852633548424
0.00085168037094
0.000851265180819
0.000850880657942
0.000850528930489
0.000850212284631
0.000849933712531
0.000849697020316
0.000849506780148
0.000849368201886
0.000849286889566
0.000849268438129
0.000849317886642
0.00084943906453
0.000849633896372
0.000849901701072
0.000850238089113
0.000850631539163
0.000851039078235
0.000851684206613
0.000851268378196
0.000850879752016
0.000850519672578
0.00085018968904
0.000849891879186
0.000849628920491
0.000849404019612
0.000849220774013
0.000849082948956
0.000848994180626
0.00084895760866
0.000848975491768
0.000849048829976
0.000849177038989
0.000849357462654
0.000849584170737
0.000849830480399
0.000851686744005
0.000851270443817
0.00085087885793
0.000850512653769
0.000850172792129
0.000849860718385
0.000849578373949
0.000849328110682
0.000849112556913
0.000848934423478
0.000848796274252
0.000848700267105
0.000848647909473
0.000848639833982
0.000848675640838
0.000848753737424
0.000848871530161
0.000849012485586
0.000851687571379
0.000851270576874
0.000850876645711
0.000850505974576
0.000850159186568
0.000849837393646
0.000849542129544
0.000849275260689
0.000849038852711
0.000848835002917
0.00084866563688
0.000848532322127
0.00084843608498
0.000848377277104
0.00084835548775
0.000848369577765
0.000848418700677
0.000848492160786
0.000851687321543
0.000851269455964
0.000850873413074
0.000850499060556
0.000850146846824
0.000849817633259
0.000849512551196
0.000849232928028
0.000848980178993
0.00084875564169
0.000848560427524
0.000848395276015
0.000848260453065
0.000848155657979
0.000848080017189
0.000848032213838
0.000848012079872
0.000848012402364
0.000851686651653
0.000851267727381
0.000850868964549
0.000850489432698
0.000850128640682
0.000849785989711
0.000849460697295
0.000849151902043
0.000848858663698
0.000848579920344
0.000848314459572
0.000848060909902
0.000847817726194
0.000847583186822
0.000847355430079
0.000847132676912
0.000846915270847
0.000846700143038
0.000851685547608
0.000851262733214
0.000850851658807
0.00085044484155
0.000850033725163
0.000849608481399
0.000849159063083
0.000848676187853
0.000848151841363
0.000847579541964
0.000846954471305
0.000846273462862
0.000845534876923
0.000844738423547
0.000843884987319
0.000842976680573
0.00084201934285
0.000841023488314
0.000851677192323
0.000851213860414
0.000850692302123
0.000850064297814
0.000849283068832
0.000848308240401
0.000847110273454
0.000845671730571
0.000843986380416
0.000842057513189
0.000839895971353
0.00083751815127
0.000834944189158
0.000832196438123
0.000829298296494
0.000826273591381
0.000823149892485
0.000819975719715
0.000851582939719
0.000850738709722
0.00084936000321
0.000847270122246
0.000844369204517
0.000840633330258
0.000836100916001
0.000830851442396
0.000824986355936
0.000818615128504
0.000811845860726
0.000804779511943
0.000797506884277
0.000790107479526
0.000782649538757
0.000775191048439
0.000767786151224
0.000760529796834
0.000850710133681
0.000847076447526
0.000840664383717
0.000831513322055
0.000820018888755
0.000806734660966
0.000792226609436
0.00077699041772
0.000761425063057
0.000745834948478
0.000730442724663
0.000715405024847
0.000700827525361
0.000686777759812
0.000673295339482
0.000660399981902
0.000648102545798
0.000636471228891
0.000844080400258
0.000824958545702
0.000797753323844
0.000766156557466
0.000733016407466
0.000700223092025
0.000668860238081
0.00063945263663
0.000612189927233
0.000587075022588
0.000564012780911
0.000542861858054
0.000523464382146
0.0005056622727
0.000489305737196
0.000474257356387
0.000460396438668
0.000447669499124
0.000803305075811
0.000726472475297
0.000651174265952
0.000585181880011
0.000529211237621
0.00048221437052
0.000442709589708
0.000409300337808
0.000380828375275
0.000356370339297
0.000335196910303
0.000316732021518
0.00030051902211
0.000286194015406
0.000273465430252
0.000262098648854
0.000251904806004
0.00024275567231
0.000625686596566
0.00046505615219
0.0003684754199
0.000303983132907
0.00025809231307
0.000224131379506
0.000198187521313
0.000177840180003
0.000161536226611
0.000148237792921
0.000137226072107
0.000127988900056
0.000120152824291
0.000113440200273
0.00010764132205
0.00010259619916
9.81829399737e-05
9.43217715451e-05
0.000254158418126
0.000158184574527
0.000117769481912
9.4378874458e-05
7.9339900195e-05
6.9109590079e-05
6.18473210987e-05
5.6521071884e-05
5.25156013887e-05
4.94433549986e-05
4.70493158768e-05
4.51598423814e-05
4.36533365233e-05
4.24425949038e-05
4.14637983976e-05
4.06694857854e-05
4.00240105191e-05
3.9505024195e-05
3.69332018538e-05
4.20247678798e-05
4.5759081871e-05
4.86608524754e-05
5.10541958695e-05
5.2999408433e-05
5.4555768933e-05
5.57801638401e-05
5.67250810312e-05
5.74372493428e-05
5.79572276933e-05
5.83196118975e-05
5.85535470919e-05
5.86833663666e-05
5.8729260317e-05
5.87079114516e-05
5.86332630326e-05
5.85151102741e-05
2.72149183634e-05
6.10903066514e-05
4.47638915714e-05
4.7378423366e-05
4.62430025715e-05
4.55772148112e-05
4.51786246455e-05
4.49586350219e-05
4.48661948953e-05
4.48653784881e-05
4.492950315e-05
4.50381637729e-05
4.51753277359e-05
4.53283585214e-05
4.54875246934e-05
4.56456299444e-05
4.57976176246e-05
4.59401754781e-05
4.60713486427e-05
4.61902252884e-05
4.62966366332e-05
4.63930124431e-05
4.64769660809e-05
4.65471916734e-05
4.66012527745e-05
4.66346147745e-05
4.66373958276e-05
4.65943926782e-05
4.64039645273e-05
2.82491808383e-05
4.97132200502e-05
6.41026025556e-05
7.03233638465e-05
8.66624313494e-05
9.93017006783e-05
0.000109742531162
0.000119802390794
0.000129930243062
0.000139915090689
0.000149527390444
0.000158599122771
0.000167002412788
0.000174649712412
0.000181500018725
0.000187557133906
0.000192861377622
0.000197479172153
0.000201492371374
0.000204989257679
0.000208057481161
0.000210780428747
0.000213242019263
0.000215527238486
0.000217590100939
0.000219395938587
0.000220933911823
0.000222147686343
0.00022289783669
0.000222825679808
0.000221006280627
0.000214536883571
2.89766595316e-05
4.86895936261e-05
5.74536959966e-05
6.98781149987e-05
7.78310912653e-05
9.73889405912e-05
0.000122959744469
0.000153311937413
0.000184887247288
0.000211978642058
0.0002336312718
0.000252613720181
0.000270408666308
0.000287312895896
0.000303354046401
0.000318539406774
0.000332853764401
0.000346264618638
0.000358745230065
0.000370291722487
0.000380929683462
0.000390713765517
0.000399719637677
0.000408034299319
0.000415760103301
0.000422992444218
0.000429759312393
0.000436055218535
0.000441922120193
0.000447364555686
0.000452347747943
0.000456767922036
0.00046038824022
0.000462638292964
0.000462089224246
0.000455518923021
3.0684902994e-05
5.18329567698e-05
6.12797184396e-05
7.42676200754e-05
8.12798832519e-05
9.72179126127e-05
0.000116440403745
0.000143259571256
0.000177544947975
0.000215694851325
0.000255301281705
0.000294775375771
0.000331631441793
0.000362947235266
0.000388108898839
0.000409333825614
0.000428464673554
0.000446280736536
0.000463131308499
0.000479244453599
0.000494763629934
0.000509759325992
0.000524257734011
0.000538268064754
0.000551799432813
0.000564871601774
0.000577509776127
0.000589721942322
0.000601462252837
0.000612710838047
0.000623500965828
0.00063384818196
0.000643760454467
0.00065322550392
0.000662197292838
0.000670569298115
0.000678116818754
0.000684329086428
0.000688029544156
0.000687351099014
3.24351195307e-05
5.50739447365e-05
6.53260792472e-05
7.92847100071e-05
8.7279111555e-05
0.000104417890728
0.000124503330064
0.0001516713739
0.000185041483831
0.000220588017405
0.000257051664507
0.000296187492573
0.000337880811533
0.000379947767097
0.000420831626103
0.000459360734454
0.000494359240844
0.000524337092028
0.000548897338377
0.000569490508242
0.000587696601902
0.000604406141834
0.00062010487097
0.000635129675496
0.000649723160273
0.000664046798698
0.00067820591196
0.000692276957482
0.000706317284123
0.000720383433801
0.00073436385803
0.000748190786158
0.000761849122429
0.000775313717963
0.000788563407082
0.000801575096806
0.00081432109726
0.000826762952962
0.000838841788305
0.000850459093682
0.000861435613084
0.00087139633684
0.000879562290743
0.000885157796182
3.42243293916e-05
5.83877152574e-05
6.94631466814e-05
8.44673137861e-05
9.39193915371e-05
0.000113069366155
0.000135091929664
0.000164400905087
0.000200169479867
0.000237924376073
0.000275971009197
0.00031588879879
0.000357330868662
0.000398267302701
0.00043828565546
0.000478052144944
0.000517509490413
0.000555916045603
0.000592490297378
0.000626535211397
0.000657355618496
0.000684076345165
0.000706406993276
0.000725228176937
0.000741723897439
0.000756707779524
0.00077068547392
0.000784024524175
0.000797007881732
0.000809849149777
0.000822716069083
0.000835763568068
0.00084909197262
0.000862579460726
0.000876239483681
0.000890056008882
0.000904004966806
0.000918053927121
0.000932164982948
0.000946295371979
0.000960397374705
0.000974416478182
0.000988287050392
0.00100192120556
0.00101518273214
0.00102781344022
0.00103933449343
0.00104954916751
3.59682135002e-05
6.05525335103e-05
6.8222586863e-05
7.59065746034e-05
9.06103546784e-05
0.000102035263094
0.000123887009596
0.000148543522212
0.000180840494317
0.000220030696472
0.000261156556074
0.000302170743247
0.000344754770247
0.000388605722098
0.000431490979968
0.000472746454638
0.000512994370378
0.000552231191854
0.000590011221894
0.000626420424929
0.000661755090363
0.00069596252068
0.00072878336227
0.000759799117119
0.000788603726443
0.000814743396176
0.000837658915001
0.000857132974196
0.000873685361162
0.000888152934901
0.000901208378259
0.000913318014654
0.000924836754548
0.000936051724113
0.000947201442331
0.000958501462459
0.000970140286652
0.000982033847048
0.000994238213378
0.00100678425263
0.00101968011856
0.00103291701234
0.00104647234784
0.00106031243988
0.00107439468219
0.00108866926133
0.00110308019055
0.00111756479056
0.00113204846102
0.00114642856571
0.001160526914
0.00117404709417
0.00118704502146
3.83058085658e-05
6.47476320936e-05
7.30904242637e-05
8.13604116774e-05
9.69024447748e-05
0.00010872857935
0.000129201648881
0.000148654037897
0.00017252958875
0.000206506528407
0.000248783592857
0.000293102286155
0.000337072833233
0.000382502351914
0.000429144397652
0.000474611263421
0.000518018834193
0.000560044096191
0.000600708270198
0.000639495598908
0.000676361832588
0.000711616200711
0.000745334937547
0.000777527080752
0.000808357861983
0.000837999005079
0.000866418799228
0.000893510878379
0.000919041090623
0.000942759211026
0.00096435446743
0.000983451643334
0.000999889471266
0.00101397262422
0.00102627819873
0.00103733517961
0.00104754759558
0.00105723844148
0.00106668297033
0.00107613613778
0.00108585234087
0.00109578860049
0.00110603953855
0.00111667370185
0.0011277375932
0.00113925741073
0.00115124134111
0.0011636818533
0.00117655792945
0.0011898373913
0.00120347923146
0.00121743592953
0.00123165488851
0.00124607639837
0.00126062289117
0.00127516650992
0.00128951096386
0.00130380332086
4.0771931238e-05
6.91996628222e-05
7.83057467694e-05
8.73083749714e-05
0.000104078089123
0.000117846282888
0.000140959902775
0.000162528302018
0.000188300763964
0.000224101788556
0.00026733345695
0.000310370906914
0.000350456996713
0.000391059441902
0.000435428210311
0.000482656115949
0.000529406897356
0.000574381489876
0.000618056025957
0.000660348803434
0.000700634756135
0.000738683264225
0.000774792429841
0.000809042056181
0.000841413381139
0.000872021556706
0.000901074744609
0.000928672284722
0.000954923717757
0.000979979819834
0.00100395627284
0.00102684537411
0.00104859494868
0.00106907107575
0.00108810700271
0.00110548504563
0.00112094595346
0.00113436935966
0.00114593407202
0.00115603451068
0.00116507564299
0.0011733955285
0.00118128001675
0.00118898959614
0.00119680651352
0.00120479373222
0.00121300855931
0.00122155489208
0.00123051118279
0.00123993477068
0.00124986407773
0.00126032050211
0.00127131012481
0.00128282551624
0.00129484770033
0.0013073485017
0.00132029304894
0.00133364183902
0.00134734982382
0.00136135802555
0.00137556968264
0.00138984044346
0.00140433813505
4.32853122403e-05
7.37750023663e-05
8.37036700998e-05
9.35075896532e-05
0.000111643520963
0.000127930691084
0.000154658811476
0.000179388979064
0.000208424771342
0.000248191367288
0.000296006405848
0.00034349386984
0.000387120370911
0.000430434489927
0.000476748050409
0.000524737079784
0.000570492283966
0.000613076821638
0.000654184443455
0.000695409373163
0.0007365469979
0.000776476959921
0.000814652714334
0.000851117039355
0.000885793464162
0.000918546024117
0.000949349915348
0.000978363174296
0.00100567157153
0.00103136947407
0.00105559344874
0.00107850048349
0.00110018980998
0.00112077762422
0.00114038362085
0.00115909329247
0.00117691151538
0.00119381282099
0.00120971589526
0.00122450376939
0.00123802020462
0.00125008145482
0.00126059664776
0.00126967011176
0.00127757057392
0.00128460345836
0.00129104630144
0.00129715052899
0.00130316355604
0.00130930578238
0.00131555541311
0.00132204097046
0.00132886340361
0.00133610247751
0.0013438195585
0.00135205943657
0.00136085189693
0.00137021302665
0.00138014662783
0.0013906458078
0.00140169502619
0.00141327231806
0.00142535113381
0.00143789945783
0.00145087208164
0.00146419203633
0.00147774115096
0.00149168044493
4.57012578488e-05
7.82584205523e-05
8.9054389589e-05
9.97192409506e-05
0.000119339623172
0.000138872908469
0.000170348747631
0.000199299148247
0.000232707932511
0.000277776250823
0.000331768313404
0.000385459828697
0.000434371582109
0.000482391032845
0.000533238124933
0.000585562207607
0.000635110778475
0.000680489356878
0.000723419929167
0.000765540294024
0.000806535067478
0.000845160564578
0.000881331102988
0.000915823153628
0.000949330434357
0.000981855082169
0.00101308166696
0.0010428113831
0.00107101533554
0.00109763977481
0.0011226751955
0.00114615360784
0.00116817453406
0.00118881599216
0.00120817908546
0.00122638211241
0.00124354608369
0.00125976095883
0.0012751227641
0.00128972375158
0.00130362838969
0.00131685035266
0.00132937326746
0.00134114487651
0.00135208045167
0.00136206351833
0.0013709608454
0.001378701823
0.00138534632216
0.00139107672769
0.00139612145705
0.00140070686443
0.00140505809217
0.00140942982368
0.00141380770985
0.00141831971512
0.00142307612763
0.00142816993255
0.0014336775661
0.00143966005279
0.00144616439063
0.00145322475317
0.00146086360439
0.00146909279244
0.00147791491747
0.00148732495306
0.00149731207524
0.0015078608512
0.00151894998665
0.0015305444907
0.00154258087578
0.00155495425322
0.00156780953667
4.78644010942e-05
8.19364340966e-05
9.17141342841e-05
9.70988600279e-05
0.000106542036762
0.000127069877102
0.000151179524569
0.000189199701079
0.000223952101576
0.000263306420563
0.000315445306522
0.000377529252232
0.000439186164532
0.000494800216862
0.000548742785683
0.000605318634748
0.000663218228916
0.000717856433443
0.000767376287112
0.000813696027581
0.000858692464327
0.000902095025398
0.00094256553335
0.000979804103781
0.00101457798236
0.00104761373703
0.00107892862205
0.00110825693675
0.0011357362077
0.00116176919101
0.00118667446412
0.00121049978332
0.0012331800639
0.00125466275439
0.00127493267811
0.00129396722813
0.00131178307727
0.00132842286519
0.00134395679409
0.00135845224591
0.00137199177974
0.00138466883358
0.00139657576698
0.00140778922619
0.00141838373048
0.00142842778023
0.0014379705341
0.00144702710246
0.0014555866192
0.0014636109917
0.00147103625556
0.00147777311648
0.00148372203079
0.00148882587602
0.00149311731806
0.00149671942644
0.00149980247345
0.00150255250188
0.00150517589772
0.00150780757801
0.0015104502016
0.00151323430796
0.00151626524574
0.00151963032562
0.00152340161551
0.00152763771219
0.00153238521291
0.00153767983215
0.00154354742911
0.00155000497393
0.00155706172969
0.00156472054494
0.00157297921403
0.00158183100542
0.00159126289797
0.00160124755099
0.00161173149183
0.00162261709183
0.00163403111467
4.9207295629e-05
8.48732447798e-05
9.55227066245e-05
0.000101521131727
0.00011177489295
0.000133626349155
0.00016140097978
0.000203524492486
0.000238255692621
0.000271817846823
0.00031440996099
0.000373413618381
0.000444373366289
0.000514732291635
0.000577522866302
0.000637803287945
0.000700588578736
0.000764569808561
0.000824708217132
0.000878680242059
0.000928652343307
0.000976830568926
0.00102303997092
0.00106588320531
0.00110486594295
0.00114081045227
0.00117455295567
0.00120615950136
0.00123533727368
0.00126213524796
0.00128694256642
0.0013101077442
0.00133173142281
0.00135183480774
0.00137057941936
0.00138820237803
0.00140486918732
0.00142063147413
0.00143549402523
0.00144945554583
0.00146251966364
0.00147468620012
0.00148597520292
0.00149642451127
0.00150608748168
0.00151501917075
0.00152328321262
0.00153094926491
0.00153808832236
0.00154476138261
0.00155102531594
0.00155692993545
0.00156251242978
0.00156778570643
0.00157274082595
0.00157734784138
0.00158155559378
0.00158529357806
0.00158848502188
0.00159108208875
0.00159309989565
0.00159462083158
0.00159577250945
0.00159671183049
0.00159762014623
0.00159846465616
0.00159936214831
0.00160041847701
0.00160172636966
0.00160336491857
0.00160540041635
0.00160788767451
0.00161087121249
0.00161438634248
0.00161846009729
0.00162311220913
0.00162835610028
0.00163419998417
0.00164064774249
0.00164769895213
0.00165534664338
0.00166356928078
0.00167232148747
0.00168151041556
0.00169124531193
4.73640714376e-05
8.26451499861e-05
9.34841962424e-05
9.82496023015e-05
0.000102730824544
0.000113237209328
0.000136287698403
0.000170663895513
0.000223043551617
0.000266810543906
0.000308615675435
0.000359972643928
0.000429063611913
0.000510306044867
0.00058808998552
0.000652890818277
0.000710370152591
0.000769360540035
0.000834318904973
0.000902261654007
0.000966577026921
0.00102411824403
0.00107710073132
0.00112798654936
0.00117661363023
0.00122145645908
0.00126183167018
0.0012986208518
0.00133281221709
0.00136455504568
0.00139356633096
0.00141982548382
0.0014437259191
0.00146566304457
0.00148577020381
0.00150406372344
0.00152066921602
0.00153581790632
0.00154970226269
0.00156242645014
0.00157407377961
0.00158477024155
0.0015946680375
0.00160386473551
0.00161240337503
0.00162030411045
0.00162757805461
0.00163424012773
0.00164029984094
0.00164577633933
0.00165069877063
0.00165510876359
0.00165904954074
0.00166256887979
0.00166571809734
0.00166855053408
0.00167111348098
0.00167344926544
0.00167559416247
0.00167757491702
0.00167940085516
0.00168106342542
0.00168253706131
0.00168377932704
0.00168473259021
0.00168533548793
0.00168554680111
0.00168536996268
0.00168485958051
0.00168411376868
0.0016832718337
0.00168238519355
0.0016814669075
0.00168062740972
0.00167996194699
0.00167955326782
0.001679472297
0.00167977903039
0.00168052364284
0.00168174749654
0.00168348414581
0.00168576023035
0.0016885964237
0.00169200832339
0.00169600735904
0.00170060132875
0.00170579400657
0.00171158265721
0.00171795020048
0.00172485823962
0.00173221800254
0.00174012280414
4.07395951578e-05
7.2256263307e-05
8.31183006883e-05
8.8670814122e-05
9.40036773411e-05
0.00010502497881
0.000128102684003
0.000167490896646
0.000228922056121
0.00028016862609
0.000324720908059
0.000372271012705
0.000433831741471
0.000517013151372
0.000614762926935
0.000708443406505
0.00078521946463
0.000851707599607
0.000918431368409
0.000990465333405
0.00106392964485
0.00113062581599
0.00118684177865
0.0012359651785
0.00128305146497
0.00133062053662
0.0013775945287
0.00142151644074
0.0014611348937
0.00149713163528
0.00153046892034
0.00156125972315
0.00158915013219
0.00161402824839
0.00163627637292
0.00165634442456
0.00167441162781
0.0016905068127
0.0017047294207
0.00171729945591
0.00172842717916
0.00173823298124
0.00174679938923
0.00175424093528
0.0017607066725
0.00176631644912
0.00177115403205
0.00177529779642
0.00177883550685
0.00178186552541
0.00178444937057
0.00178661960931
0.00178839538411
0.0017897886372
0.00179081534369
0.00179148793698
0.001791822547
0.00179184158562
0.00179157594102
0.00179105883053
0.00179032547034
0.00178941379713
0.00178836287414
0.00178720817452
0.00178598068248
0.00178470678532
0.00178340446123
0.00178207915567
0.00178072173972
0.00177930931841
0.00177780520691
0.00177616112797
0.00177432627567
0.00177226408381
0.00176997018685
0.00176748058037
0.00176487424956
0.00176225030315
0.00175955412564
0.00175687906866
0.00175431379904
0.00175193973433
0.0017498290346
0.00174804420454
0.00174663862179
0.00174565729077
0.00174513773353
0.00174511084416
0.00174560179423
0.00174663087457
0.00174821436521
0.00175036522297
0.00175309343354
0.00175640526837
0.00176030081113
0.00176476644684
0.0017697700345
0.00177522702961
0.00178121683936
3.50043211096e-05
6.13286770329e-05
7.04026092138e-05
7.51110046288e-05
7.94324890677e-05
8.80054669694e-05
0.000106478656328
0.000140956804948
0.000202525737079
0.000261306144779
0.000318185551097
0.000381908611907
0.000463777783414
0.000571650550067
0.000697481309227
0.000817892845579
0.000913105832082
0.000988898928507
0.00105823286258
0.00113169720316
0.00121297207683
0.00129610976796
0.00137090111363
0.00143240618242
0.00148442976759
0.00153289326614
0.00158066687846
0.00162640301047
0.00166714673676
0.00170170831126
0.00173163622303
0.00175923989076
0.00178579475656
0.00181110015401
0.00183435181689
0.00185508124492
0.00187347386003
0.00188986932387
0.00190437852635
0.00191696249045
0.00192765519815
0.00193663950783
0.0019441323108
0.00195026824892
0.00195513001111
0.00195881795157
0.00196146449745
0.00196319171535
0.00196408858325
0.00196423175249
0.00196370572397
0.00196260719677
0.00196101331187
0.00195898445402
0.0019565784278
0.00195385297299
0.00195086984385
0.00194766768787
0.00194426890457
0.00194068733552
0.00193693279138
0.00193301765387
0.00192895297834
0.00192475116422
0.00192042952019
0.00191600996822
0.0019115169908
0.00190697617526
0.00190241542466
0.00189786273361
0.00189334395609
0.00188888116519
0.00188449288102
0.00188019051746
0.00187597563435
0.00187183827462
0.00186775732096
0.00186370021291
0.00185962537358
0.00185548943021
0.00185125912702
0.00184692481511
0.00184251113298
0.00183809023811
0.00183363573267
0.00182916447152
0.0018247575055
0.00182049049134
0.00181643282448
0.00181264640952
0.00180918532798
0.00180609613205
0.00180341836033
0.00180118525944
0.0017994245239
0.00179815912598
0.0017974080884
0.00179718727719
0.00179750995732
0.00179838697597
0.00179982584808
0.00180182838661
0.00180438372802
0.0018074653838
0.00181099354847
0.00181503604914
3.52880993675e-05
6.15270505377e-05
7.01454109224e-05
7.4049074673e-05
7.64391093619e-05
7.91807815954e-05
8.49936010854e-05
9.6862146114e-05
0.000101051724357
0.000117914856021
0.000140611801579
0.000171163153084
0.000218209858208
0.000296155218369
0.00041869925095
0.00058202364199
0.00075911971846
0.000916198993464
0.00104935907138
0.00116953256412
0.00128804477613
0.00140916627491
0.00152614421762
0.00162662942078
0.00170423851197
0.00176393074799
0.0018145755633
0.00186309836704
0.00191186815869
0.00195856202854
0.00199932543035
0.0020324649412
0.00205957326517
0.00208323342808
0.00210489275735
0.00212435864474
0.00214078281353
0.00215388885374
0.00216438614029
0.00217327719881
0.00218117461534
0.00218812838597
0.00219390977801
0.00219835573654
0.00220150391546
0.00220347008538
0.0022043168148
0.00220406484012
0.00220276160174
0.00220049614674
0.00219737636429
0.00219348698532
0.00218889575937
0.00218367522759
0.00217790452603
0.00217165577125
0.00216498796005
0.0021579555955
0.00215061443564
0.0021430250265
0.00213523564294
0.00212728598537
0.00211921363686
0.0021110544683
0.00210284504127
0.0020946085497
0.00208635839194
0.00207810281821
0.00206984849836
0.00206160325149
0.00205337496923
0.00204517236564
0.00203700801519
0.00202889710655
0.00202085693065
0.00201290558602
0.00200506306945
0.00199734912908
0.00198978189033
0.00198237657233
0.00197514533228
0.00196809446768
0.00196122247445
0.00195451842551
0.001947962419
0.00194152508161
0.00193516997576
0.00192885910011
0.00192256150888
0.00191626378438
0.0019099830247
0.00190374915556
0.0018974948677
0.00189128545795
0.00188518501423
0.00187925537717
0.00187355401332
0.00186813276461
0.00186303741777
0.00185830769281
0.00185397759019
0.0018500758877
0.00184662680173
0.0018436506616
0.00184116465638
0.00183918348838
0.00183771988495
0.00183678460668
0.00183638552335
0.00183652537522
0.00183719550171
0.00183837445949
0.00183998773137
0.00184209406821
3.68758303557e-05
6.4204974205e-05
7.30328700435e-05
7.69582613694e-05