/*--------------------------------*- C++ -*----------------------------------*\
| =========                 |                                                 |
| \\      /  F ield         | OpenFOAM: The Open Source CFD Toolbox           |
|  \\    /   O peration     | Version:  2.3.1                                 |
|   \\  /    A nd           | Web:      www.OpenFOAM.org                      |
|    \\/     M anipulation  |                                                 |
\*---------------------------------------------------------------------------*/
FoamFile
{
    version     2.0;
    format      ascii;
    class       volScalarField;
    location    "200";
    object      p;
}
// * * * * * * * * * * * * * * * * * * * * * * * * * * * * * * * * * * * * * //

dimensions      [0 2 -2 0 0 0 0];

internalField   nonuniform List<scalar> 
10011
(
-13.8563031594
-16.5853183669
-17.4900026062
-17.816713186
-18.09747178
-18.3871116034
-18.6847861347
-19.0034519192
-19.3583448427
-19.7630737889
-20.232666699
-20.7871857318
-21.4558491617
-22.2840022246
-23.3443764098
-24.7673906133
-26.8697423483
-30.7793780096
-17.6445449346
-18.0230656215
-18.1906726883
-18.2321778495
-18.3554174029
-18.5522125571
-18.7937428762
-19.0766287652
-19.4074311582
-19.7950046972
-20.2514416673
-20.7946914786
-21.4521073621
-22.264864222
-23.297497143
-24.6590255786
-26.5335373249
-29.0040735714
-17.4892913743
-17.3574055838
-17.6153498778
-17.8359207677
-18.0742988436
-18.346245376
-18.6399208899
-18.9585084656
-19.3128610007
-19.7148067396
-20.1779521605
-20.7202500163
-21.3662525435
-22.1511319322
-23.1265740211
-24.3651568571
-25.9514155129
-27.8381357413
-17.4009349069
-17.4130623916
-17.7418731047
-17.9956401436
-18.2214880403
-18.467297552
-18.7354800936
-19.0309318337
-19.3638760177
-19.7451190686
-20.1866483744
-20.7035593818
-21.3157907264
-22.049810127
-22.9389600545
-24.0171426039
-25.2894284242
-26.6130062665
-17.4303232054
-17.5021898156
-17.7704583574
-17.9915915892
-18.1966419624
-18.4280462327
-18.6879837999
-18.9780382054
-19.3053677011
-19.678610034
-20.1075090525
-20.6039774242
-21.1825177658
-21.8597209672
-22.6508692217
-23.558435161
-24.5407056648
-25.4380135545
-17.4935791379
-17.5661595018
-17.7818226199
-17.9885377459
-18.1914512237
-18.4192064576
-18.6743391506
-18.9578589967
-19.2755458609
-19.6346063052
-20.0426805381
-20.5081608266
-21.0398412452
-21.6447510453
-22.3228613173
-23.0551603225
-23.7793854482
-24.3546674608
-17.5435175518
-17.6065727736
-17.7870722204
-17.9814896524
-18.1790273487
-18.3983447172
-18.6431696688
-18.9147420752
-19.2174157274
-19.5564781952
-19.9370697118
-20.3638453971
-20.8398624537
-21.3637861788
-21.9245213583
-22.4919135665
-23.0021376929
-23.3484252031
-17.5770335455
-17.633636182
-17.7914511314
-17.9728396555
-18.1622311884
-18.3720318985
-18.6059172763
-18.8648304174
-19.15164678
-19.4698907256
-19.8224684699
-20.2109486808
-20.6341712712
-21.0855218753
-21.5484437195
-21.9901321559
-22.3536151209
-22.5611775749
-17.6009978786
-17.652898806
-17.7925775249
-17.9612008838
-18.1417370042
-18.341796896
-18.5644143166
-18.8100701234
-19.0804268656
-19.3774456297
-19.7021224563
-20.0535659565
-20.4275637698
-20.8141983933
-21.1944497183
-21.5363882129
-21.79181005
-21.9042264014
-17.6202538863
-17.6673063467
-17.7893588938
-17.9437040968
-18.1132242436
-18.3012396023
-18.5097777569
-18.7387854063
-18.9886637057
-19.2597527568
-19.5511631934
-19.8597825749
-20.1789859481
-20.4968253422
-20.793893651
-21.0417126248
-21.2025684475
-21.2383163233
-17.6320967193
-17.6739538211
-17.7793918315
-17.9181690696
-18.0742274784
-18.2474822175
-18.4387602996
-18.6473252042
-18.8723309879
-19.1125574406
-19.3654191639
-19.6260482854
-19.8863020268
-20.1336393725
-20.3501598144
-20.5125736226
-20.5937101568
-20.570115447
-17.633150781
-17.6695860097
-17.7594456514
-17.8814741132
-18.0214783501
-18.1770197539
-18.347607204
-18.5317128175
-18.7273554077
-18.931964651
-19.1416319493
-19.3503947387
-19.5496194793
-19.7275236013
-19.8690906548
-19.956893986
-19.9730389072
-19.9047941003
-17.6194229839
-17.6503123312
-17.7253850081
-17.8296269578
-17.9510548874
-18.0858184657
-18.2321916383
-18.3878554546
-18.5499132475
-18.7148079507
-18.8778387004
-19.0327121709
-19.17128439
-19.2835585328
-19.3580834745
-19.3830094344
-19.3477327771
-19.24665188
-17.5862801232
-17.6115570107
-17.6723675034
-17.7579698864
-17.8585407004
-17.9695919306
-18.0884428518
-18.2121277825
-18.337157571
-18.4594692608
-18.5741818421
-18.6754032526
-18.756234551
-18.8090193107
-18.8258747582
-18.7995951833
-18.7247464337
-18.6000225989
-17.5286434218
-17.5482930813
-17.595174696
-17.6615100801
-17.739412728
-17.8243278233
-17.9130225901
-18.0021693443
-18.0880865495
-18.1667264577
-18.2336070596
-18.283799646
-18.3120664812
-18.3131630473
-18.2822839088
-18.21567027
-18.1112080777
-17.9699066982
-17.4414162335
-17.4554945754
-17.4887781812
-17.5356318482
-17.5898593144
-17.6472232613
-17.7043693979
-17.7579774753
-17.8045883674
-17.8406302376
-17.8624486402
-17.8663796056
-17.8489078807
-17.8069044912
-17.7379065101
-17.6404517865
-17.5143419275
-17.3616401455
-17.3202434496
-17.3288865453
-17.3491274064
-17.3769747414
-17.4076970762
-17.4376019577
-17.4635853675
-17.482696297
-17.4920508715
-17.48887414
-17.4705608735
-17.4347563342
-17.3794706077
-17.3032137257
-17.2051250675
-17.0851240264
-16.9439972077
-16.7841772113
-17.1741889815
-17.178223543
-17.1875185329
-17.1992723906
-17.2098870395
-17.2162461848
-17.2157036009
-17.2058903713
-17.1846515853
-17.150072584
-17.10052971
-17.0347435226
-16.9518364669
-16.851387507
-16.7334687624
-16.598704142
-16.4482841841
-16.2846965232
-17.0289288568
-17.0298713235
-17.0317489546
-17.0324690943
-17.0290579028
-17.018771133
-16.9994124254
-16.9691932526
-16.9266117877
-16.870456501
-16.7998421009
-16.7142334134
-16.613458734
-16.4977192852
-16.3675796646
-16.2239908963
-16.068277418
-15.902909649
-16.8985246208
-16.8976332171
-16.8952504293
-16.8896063829
-16.8777024272
-16.8568664705
-16.8253087182
-16.7817633717
-16.7252485669
-16.6550784418
-16.5708977958
-16.4726738279
-16.360680759
-16.2354839537
-16.0979139998
-15.9490748859
-15.7903240253
-15.6241101753
-16.7834294349
-16.7814394911
-16.7772711567
-16.7690718061
-16.7528983576
-16.7259107179
-16.6868147646
-16.6348358176
-16.5693883559
-16.4901878281
-16.3972804239
-16.2909937812
-16.1719000286
-16.0407949682
-15.8986667598
-15.7467050095
-15.5862773771
-15.4198673438
-16.6825427958
-16.6794944667
-16.6756851922
-16.6683373758
-16.651079744
-16.6209555036
-16.5774934643
-16.520370394
-16.4492678577
-16.3642221218
-16.2656092826
-16.1540328185
-16.0302784925
-15.8952978958
-15.7501765134
-15.5961442099
-15.4345447279
-15.2678864303
-16.5944443467
-16.5892066022
-16.5880174783
-16.585039238
-16.5692123725
-16.5381259105
-16.4926509767
-16.4328129834
-16.3584658746
-16.2699444239
-16.1679061324
-16.0531593907
-15.9266391317
-15.789403514
-15.6426039168
-15.4874991655
-15.3254282321
-15.1590688808
-16.5179076601
-16.5075626091
-16.5116497107
-16.5159882156
-16.5027767367
-16.4719483668
-16.4259117314
-16.3646538554
-16.2882006116
-16.1972891408
-16.0928782468
-15.97595557
-15.8475746234
-15.7088692253
-15.5610181831
-15.4052524379
-15.2427913781
-15.0762568207
-16.4514519759
-16.4320540197
-16.4487823125
-16.4634351046
-16.4526579918
-16.4234185239
-16.3792404261
-16.3190571603
-16.2428436722
-16.151700598
-16.0468269514
-15.9293523289
-15.8004450779
-15.6613296474
-15.5132412266
-15.3574292441
-15.1950810015
-15.0291434876
-16.3902151364
-16.3447070317
-16.3906974385
-16.4201072543
-16.4073942354
-16.3752978281
-16.329507288
-16.2679672903
-16.1907223394
-16.09906512
-15.9941555039
-15.8770307262
-15.7487989719
-15.6106441199
-15.4637548811
-15.3092870593
-15.148148046
-14.9827217503
-16.3723385188
-16.2407462732
-16.3405446993
-16.4119028456
-16.4190108683
-16.3984051955
-16.3576959979
-16.2965051686
-16.2171338895
-16.122247582
-16.0136664891
-15.892800314
-15.7609997917
-15.6196045558
-15.4699043622
-15.3131214493
-15.150172005
-14.9837900461
-16.4629216429
-16.1150624293
-16.1512882879
-16.1944374021
-16.2098413106
-16.2139472784
-16.1984774384
-16.159519652
-16.099454493
-16.0211365264
-15.9265826886
-15.8175187411
-15.6956581219
-15.5626885692
-15.4202249882
-15.2697874495
-15.11241294
-14.9505713579
-16.7583388349
-16.8066711738
-16.7996758286
-16.6669184865
-16.5569064748
-16.4766974404
-16.3986029208
-16.3122114926
-16.2164257832
-16.1110552771
-15.9957735457
-15.8706696598
-15.7363134018
-15.5935824049
-15.4435417717
-15.2874333156
-15.1263733235
-14.9646388088
-13.0630640471
-15.2396568137
-15.9980713347
-16.15859282
-16.2164148836
-16.2431359649
-16.2333512487
-16.1920669313
-16.1272882551
-16.043812885
-15.9442710357
-15.8306553627
-15.7048064487
-15.5684712552
-15.4233370485
-15.2711639496
-15.1136606823
-14.9582237444
16.7553866343
16.904057782
17.4166564195
17.1750326547
16.9329312594
16.8115780655
16.7417282792
16.6799752214
16.6222371242
16.5712823252
16.5267738569
16.4871530957
16.4512929019
16.4185226131
16.3883569612
16.3604020522
16.3343572019
16.3100179813
16.2872780061
16.2661337649
16.2467087943
16.2293001331
16.2144751829
16.2031761532
16.196923083
16.1984312885
16.2125022955
16.2516310542
16.3256619132
16.1861345414
16.3690729938
16.5393974875
16.7848108016
16.9540036849
17.2508088302
17.1424087474
16.9414823689
16.8197788539
16.7451773236
16.6814358013
16.6229437448
16.5714583589
16.5265090912
16.4865714686
16.4505087519
16.4176169845
16.3873837436
16.3593973163
16.3333454122
16.3090145653
16.2862919992
16.2651703345
16.2457766131
16.2284242865
16.2136527606
16.202350272
16.1959946341
16.1971948754
16.2101292225
16.2454849664
16.2979891472
15.530931876
15.6896546819
15.8218835199
15.9844175394
16.201741047
16.3507371064
16.5229253891
16.735612622
16.8862671164
17.0644282019
17.0283765246
16.8934386938
16.7920677279
16.7242977222
16.6663135724
16.6125634261
16.5642839684
16.5213882702
16.4828097178
16.4476741812
16.4154179053
16.3856190651
16.3579284769
16.332076461
16.3078761633
16.2852297224
16.2641496031
16.2447575048
16.2273187492
16.2123189327
16.2005788328
16.1934048835
16.1929965162
16.2021709604
16.2287754312
16.2552875537
14.8942242118
15.055696546
15.1821092168
15.3390065025
15.5475926937
15.6674773984
15.8123138627
15.9881878212
16.1894205473
16.3380214969
16.5021616109
16.6793297522
16.8166419184
16.9424563184
16.9403668111
16.8532730711
16.7708572953
16.7087392875
16.6546287042
16.6041927072
16.558234937
16.516882258
16.4794008377
16.4450896633
16.4134581626
16.3841286258
16.3567822647
16.3311716241
16.3071338889
16.284569757
16.2634653975
16.243921252
16.2261749035
16.2106515363
16.198043339
16.1893684255
16.1862440727
16.1899490149
16.2057018951
16.2088545013
14.2460152257
14.4154668747
14.5412110477
14.6980350295
14.9117554002
15.0310972119
15.1726036913
15.342100012
15.533197106
15.6638511033
15.8137538394
15.9874957241
16.1640451578
16.3132710733
16.4658770792
16.620208134
16.7448282406
16.8424920032
16.8553681008
16.8016087817
16.738612346
16.6851997617
16.6369501104
16.5912655641
16.5488184263
16.509948092
16.4742684432
16.4413028144
16.4106854435
16.3821217772
16.3553566409
16.3301577677
16.3063546952
16.2838662452
16.2626860425
16.2428977371
16.224694408
16.2084094744
16.194559397
16.1838194921
16.1771881976
16.1745621279
16.1792696637
16.1627315214
13.5798316217
13.7562452009
13.8825458715
14.0415779606
14.2638242215
14.3876441242
14.531222609
14.7021440585
14.8974182379
15.0290906404
15.1772515535
15.3468519061
15.5158614427
15.6561733669
15.8054862217
15.969640438
16.1336740218
16.2818375989
16.4251269177
16.5628190757
16.6753094671
16.7572165525
16.7786873199
16.7484830694
16.7028064876
16.6588157723
16.6168807715
16.5761683271
16.5374835496
16.501369714
16.4677467374
16.4363606461
16.4070036906
16.3794309029
16.3533737081
16.3286454083
16.3051243229
16.2827444958
16.2614925553
16.2414213934
16.222663361
16.2054415817
16.1900790196
16.1769044913
16.1663460553
16.1571897513
16.1515954064
16.1186122726
12.7172111082
12.9054600931
13.0274098938
13.1757693088
13.355255139
13.5931768152
13.7226450385
13.8703764873
14.0462234759
14.249518838
14.386578546
14.538241757
14.7109047714
14.8825286031
15.0241911161
15.1729480678
15.3351279435
15.4961777544
15.6430465856
15.791984702
15.9482053865
16.1028948643
16.2462050257
16.3809578865
16.5060104654
16.6085188689
16.6815145193
16.7089057293
16.6955146636
16.6643969915
16.6297158122
16.5943287529
16.5587732616
16.5240847404
16.4909920858
16.4596878084
16.4301796182
16.4023116565
16.3758230421
16.3505529572
16.3263855606
16.3032266277
16.2810103891
16.2597075136
16.239333233
16.2199520332
16.2016697563
16.1846161739
16.1687960043
16.1541496171
16.138621304
16.1237553274
16.0770869024
11.8171344632
12.0206460994
12.1454583278
12.2972989137
12.4832609781
12.7319613175
12.8623291088
13.0028810151
13.1805521569
13.3726943578
13.5845895945
13.7253806023
13.8815868292
14.0599708205
14.2369499217
14.383244654
14.5356246992
14.701070623
14.8650567347
15.0145106826
15.1649183951
15.3220404905
15.4782402936
15.6262608531
15.7732874866
15.9228228702
16.069644901
16.2070985806
16.3345430524
16.450118469
16.5450412051
16.6129714772
16.6448721467
16.6437712901
16.6246545837
16.59870919
16.5698269288
16.5394582803
16.5088716722
16.4789710784
16.4502598868
16.4228294634
16.3965064116
16.3711881428
16.3468130097
16.3233046439
16.3005820875
16.2785770685
16.2572423369
16.2365530529
16.216502793
16.1970802716
16.1782314225
16.1596724714
16.1409469526
16.1193909191
16.0963182236
16.0383033402
10.8797998606
11.098484126
11.2254234549
11.3794517708
11.5697749901
11.8313173544
11.9711435952
12.117671896
12.3017871312
12.4989999759
12.7162773585
12.8582868785
13.0118950337
13.1961467378
13.3887193585
13.5715634137
13.7222426937
13.8796664216
14.0505819283
14.2198095705
14.3745222699
14.5294085876
14.6905506962
14.8505695829
15.0024192053
15.1528945814
15.3061299363
15.4583348814
15.6052404158
15.7498274253
15.8939346379
16.034205526
16.1659331649
16.2871252847
16.3954872027
16.4847789121
16.5498363368
16.585389763
16.5935558279
16.5843200629
16.566348784
16.5437492841
16.5184955381
16.4920423879
16.465526801
16.4395742893
16.4142606194
16.3895651865
16.3655323238
16.3421580046
16.3193922521
16.2971675155
16.2754151039
16.254068917
16.2330630662
16.2123196008
16.1917148193
16.1710257398
16.1497217862
16.1270367512
16.0998916565
16.0696159066
16.0022297986
9.90777799062
10.140882281
10.2691883167
10.424428731
10.6178153428
10.8920535853
11.0422036913
11.194552902
11.3850289743
11.5880246882
11.8151498393
11.9664056796
12.1270202197
12.3180646866
12.5162680478
12.7026412146
12.855920585
13.0155372087
13.1942436462
13.3780130683
13.5539309324
13.7142411202
13.8748211995
14.041522001
14.2069506496
14.3643359468
14.5198519862
14.6778177375
14.8347666681
14.9867445019
15.1366863545
15.287095022
15.4360354717
15.5809475951
15.7228058863
15.8622932956
15.9970368403
16.123542708
16.2394222084
16.3422380403
16.4274097695
16.4909103393
16.5295587617
16.5449408251
16.5438921806
16.5330871856
16.5164343537
16.4961440068
16.473844912
16.4508269814
16.4276702252
16.4045095311
16.3815444692
16.3589023504
16.3366162089
16.3146636247
16.2929929287
16.2715347809
16.2502033791
16.2288912888
16.2074512925
16.1856547222
16.1631287776
16.1391386573
16.1126865779
16.0804331465
16.0438608947
15.9687743119
8.90892206838
9.15028757781
9.27779948498
9.43353134999
9.62909629439
9.91596591773
10.0771219597
10.2348236485
10.4312453901
10.6397188228
10.8767181187
11.0378408246
11.2057078603
11.4042623001
11.6098125268
11.8031902006
11.9642039052
12.1305033091
12.3153123385
12.5043589974
12.6845706791
12.8492783573
13.015064879
13.1903332412
13.3683343849
13.5410888063
13.704717081
13.8663404537
14.0301346146
14.1928034766
14.3506521335
14.5062578796
14.6622190584
14.8169285291
14.9681906092
15.1171821331
15.2652687973
15.4114080441
15.5539843544
15.6930229818
15.828489691
15.9585417549
16.080454715
16.1918581637
16.2903893276
16.3725777867
16.4353388051
16.476687658
16.4978602182
16.5036653182
16.4992544486
16.4881549111
16.4726222769
16.4545133482
16.4350179471
16.4145986215
16.3936584429
16.3725185341
16.3513522732
16.3302293439
16.3091563734
16.2880967759
16.2669786016
16.2456961278
16.2241010495
16.2019813267
16.1790127887
16.1546938239
16.1281259753
16.0981462559
16.0612757601
16.0192075096
15.9378417108
7.68538285703
7.93790289835
8.06361368639
8.20977747244
8.39123219309
8.59719139517
8.90166154391
9.07436705617
9.23728282003
9.44055160117
9.65545619422
9.90278303884
10.0739642949
10.2487295646
10.4546688023
10.6675495084
10.8677734052
11.0366742036
11.2099927016
11.4017909558
11.5977533752
11.784838501
11.9571770439
12.129900142
12.3113475221
12.4949079201
12.6728733614
12.8420802149
13.010340066
13.1828802759
13.3566902016
13.5270173167
13.6915993839
13.8537116489
14.0158992303
14.1767470618
14.3342994682
14.4895885445
14.64405968
14.7969929226
14.9471571121
15.0949320632
15.2409711418
15.3846354402
15.5248096874
15.6610852712
15.793016717
15.919067379
16.0370154879
16.1446814164
16.2398908788
16.319943613
16.3824879522
16.4262411005
16.4521896716
16.4638040916
16.4650885169
16.4591380392
16.4482423208
16.4342326847
16.4181162916
16.4004453776
16.3817984458
16.3625586922
16.3429401212
16.3230506871
16.3029238704
16.2825348592
16.2618078941
16.2406173529
16.2187764605
16.1960134667
16.1719199851
16.1458860425
16.116887051
16.0836482212
16.0426444139
15.9957803418
15.9093530474
6.44385132406
6.69049629724
6.81181024797
6.95648146079
7.13948664674
7.34892940778
7.66775221083
7.84735423811
8.007027131
8.1982374382
8.42224915851
8.64622923651
8.90142688003
9.07872314697
9.25851312987
9.47180813075
9.69212726079
9.89860843612
10.0746149418
10.254452285
10.4530008766
10.6557573063
10.8496361315
11.0297630167
11.2098704005
11.3983509117
11.5887767365
11.7736787108
11.9502502483
12.1254197055
12.3042572764
12.483970137
12.6601833967
12.8311437281
13.000622433
13.1716137571
13.3427657927
13.5113292624
13.6759355719
13.8380619781
13.9991639799
14.1586891054
14.3156158663
14.4703197046
14.6235598058
14.7750049882
14.9239315544
15.0703619219
15.214528818
15.3559591368
15.4938003621
15.6274562027
15.7562690221
15.8788887287
15.9934532826
16.0980208621
16.1906542543
16.2692053961
16.3318755268
16.3778041619
16.4077893493
16.4243932006
16.4307555359
16.4295731785
16.4231807237
16.4131339624
16.4002497373
16.3853324153
16.3690249185
16.3517414496
16.3337349353
16.3151470949
16.2960335
16.2763777111
16.2560996744
16.2350542456
16.2130193717
16.1896691893
16.1645229298
16.136881424
16.1056270892
16.0694148241
16.024743815
15.973694678
15.8832560843
4.98453855682
5.22449520381
5.34342549991
5.48339438848
5.65099599073
5.84044625811
6.05689596393
6.39870883246
6.58505874915
6.745655027
6.94221385271
7.17392935234
7.40362593223
7.66585314962
7.84644691175
8.02255312904
8.23060871868
8.46076525861
8.68831321285
8.89885366358
9.07998274547
9.26554450552
9.47068768662
9.68011116501
9.88042317128
10.0678718566
10.2551051625
10.4504281413
10.6475920961
10.8393839359
11.0234504862
11.2059117858
11.391703174
11.5782282924
11.7613607289
11.9394972303
12.1159086881
12.2934279328
12.4708929243
12.645901123
12.8174638237
12.9873767024
13.1573133172
13.326659386
13.4938642547
13.6580729232
13.8199049824
13.98016836
14.1386640175
14.2948517382
14.448831898
14.6009795528
14.7511135459
14.8987714895
15.0438174389
15.1862431943
15.3256291668
15.4612681044
15.5924930046
15.7185492459
15.8382227809
15.949919017
16.0519353689
16.1425738546
16.220101367
16.2831266877
16.3310517055
16.3645225392
16.3854675493
16.3963752434
16.399727687
16.3976067946
16.3912400932
16.3815236261
16.3693657105
16.3554265035
16.3401462733
16.3238118922
16.3065921108
16.2885593803
16.2697035264
16.2499393209
16.2291033
16.2069409543
16.1830788202
16.1569746495
16.1278581579
16.0945463305
16.0556555358
16.0077611446
15.9530616487
15.8595235271
3.4956335378
3.7151341782
3.83048017641
3.96590252877
4.12900576609
4.32042363363
4.54697675071
4.90866654932
5.10204168251
5.25805309094
5.44720058208
5.66293630879
5.90428713274
6.14214680913
6.41325853444
6.59567493791
6.77076424709
6.98346377819
7.22058762589
7.45343689942
7.66606414304
7.84836494233
8.0339859116
8.24051230511
8.45950913941
8.67617492124
8.88172322867
9.07508217496
9.26855529179
9.47010270399
9.67349199185
9.87165095645
10.0626751283
10.2520585686
10.4445117897
10.6376475949
10.8275982847
11.0129608782
11.1965531822
11.381023932
11.5653471229
11.7473052895
11.9259817265
12.1029050492
12.2796206459
12.4556669941
12.6297710758
12.8013646048
12.9712702243
13.1404121958
13.3084894897
13.4746264078
13.6382733624
13.799649006
13.9591888988
14.1168173665
14.2722359338
14.425432361
14.5765667373
14.7255024772
14.8719100487
15.0155848042
15.1563766756
15.2938825479
15.4274741203
15.5564743631
15.6800955901
15.7972349941
15.9065105854
16.0064370813
16.095543587
16.1724109383
16.2359496829
16.2857292544
16.3222677985
16.3470346316
16.362080618
16.3697214115
16.3715932723
16.3686837794
16.3620677619
16.3526534872
16.3410973194
16.3278604203
16.3132541864
16.2974673172
16.280584511
16.2626000877
16.2434225897
16.222871628
16.2006630185
16.1763823288
16.1494358556
16.1189983592
16.0838438474
16.0425735111
15.991875665
15.9339970258
15.8381535665
2.0673936839
2.22851262981
2.32165403533
2.43963280903
2.58604913837
2.76887731648
3.00396965604
3.38077673467
3.58018361953
3.72884328947
3.91849884182
4.14038930935
4.39294342158
4.6469011223
4.93155399861
5.11458564558
5.28018618382
5.48491792754
5.7152762549
5.95938312991
6.19692645843
6.41234837475
6.59633825401
6.7836698946
6.99445886993
7.21861097405
7.43959195273
7.64822926258
7.84468217595
8.04147714481
8.24756855561
8.45970899578
8.67016821745
8.87407671319
9.0710728358
9.26659241117
9.46507963959
9.66426855641
9.86050235553
10.0525628475
10.2429244288
10.4340180955
10.6249559299
10.8137104873
10.9994612625
11.1834940453
11.3671886437
11.5501698205
11.7312892229
11.9100206169
12.0870556123
12.2632265773
12.4383549822
12.6117736777
12.7831469382
12.9528310002
13.1213237776
13.288455184
13.4537218028
13.6167578037
13.7776033875
13.9364739726
14.0933265021
14.247978662
14.4003738459
14.5505435198
14.698360502
14.8435572224
14.9859010267
15.1251583982
15.2609292433
15.3926357492
15.519616525
15.6410885926
15.756050335
15.8632900471
15.9615174264
16.0494602393
16.125947776
16.1901133271
16.2416348698
16.2809179821
16.3090833737
16.328037175
16.339675872
16.345165843
16.3455727551
16.3419928368
16.335296323
16.3261321338
16.3149739671
16.3021487747
16.2878586907
16.272197214
16.2551607063
16.2366510647
16.2164717455
16.1943123477
16.1697231324
16.1420686766
16.1104819939
16.0737126194
16.030362245
15.9772576747
15.9166195495
15.8191635817
0.596873732008
0.756203586655
0.85113275763
0.960854206969
1.08417316385
1.21270188045
1.36861517638
1.58772085143
1.94295492088
2.09751837079
2.20605104278
2.36799558537
2.57343178685
2.82518874525
3.10408554576
3.41342965223
3.60231642662
3.76029441445
3.96876569195
4.21003120085
4.46665769408
4.71496362045
4.93395266978
5.11438717275
5.29600018737
5.50385224416
5.72864032145
5.9592759934
6.1843267582
6.39608358938
6.59550520855
6.79538791636
7.00522418009
7.22135302689
7.43553899952
7.64296220654
7.84379539174
8.04375499279
8.24779209093
8.45487303682
8.66095470021
8.86321950144
9.06131313809
9.25776175582
9.4548708591
9.65184032791
9.84682492822
10.0391003121
10.229778532
10.4200697844
10.6096818323
10.7975907352
10.9833171482
11.167428767
11.350626144
11.5327835834
11.7133137652
11.8919089218
12.0688680525
12.2446329015
12.4191302898
12.5920090134
12.7630628047
12.9324292668
13.1003605729
13.2667446353
13.4312769431
13.5937040969
13.7539911743
13.9122205297
14.0683515625
14.2222523562
14.3738469558
14.5230897907
14.669847968
14.8138833837
14.9549503463
15.0927680257
15.2269398715
15.3569219452
15.4820805435
15.6016622735
15.7147540284
15.8202897795
15.9171465747
16.0042275934
16.0805562627
16.1454345033
16.198612013
16.2403931574
16.2717188364
16.2943116374
16.3095713221
16.3184254503
16.3220271723
16.3214112615
16.3174010649
16.3106339075
16.3015860507
16.2905924219
16.2778630448
16.2634970127
16.2474901904
16.2297375756
16.2100271665
16.1880257899
16.1632534663
16.1350417913
16.1024927998
16.0643460928
16.0192136982
15.9640773233
15.9010564884
15.8025868336
-1.48894950578
-1.25282892104
-1.10951839985
-0.951187557724
-0.771695638734
-0.588618952972
-0.405376555957
-0.195916793746
0.0760689748381
0.480533252509
0.654797038029
0.751571761571
0.887501788703
1.04435778747
1.21282437873
1.41903516825
1.66351463641
1.92938884944
2.07525854968
2.19943431985
2.40376924387
2.66290862441
2.94676021728
3.22318609389
3.45522133168
3.63102128408
3.80480604782
4.01289629799
4.24295525835
4.4792974636
4.707990518
4.91984107155
5.1168741661
5.31441814416
5.52377342665
5.74221395266
5.96339033179
6.18091964877
6.39122478466
6.59504279291
6.79820799195
7.00570572804
7.21639124023
7.42613862737
7.63227166193
7.83472578878
8.03621940142
8.23931592505
8.44367468239
8.64720516749
8.84828829194
9.04662629035
9.2433917046
9.43974317181
9.63544945022
9.82961655346
10.0218235022
10.2125565372
10.402393592
10.5912596304
10.7786421233
10.964254934
11.1483370061
11.3312321604
11.5129023781
11.6930445456
11.8714741103
12.0483097447
12.2237766358
12.3978380204
12.5703016568
12.7410332132
12.9100687048
13.0775196923
13.2433006959
13.4072128624
13.5690714633
13.7288108934
13.8864356456
14.0418951127
14.1950783619
14.345896277
14.4942582654
14.6400218462
14.7829605299
14.9228229389
15.0593048592
15.1920130561
15.3204336484
15.4439647871
15.5618943564
15.673392938
15.7775160747
15.873285875
15.959754921
16.0361047922
16.1017654627
16.1565369315
16.2006238693
16.2350108557
16.2609690789
16.2794411968
16.2914741444
16.2981542197
16.3004268873
16.2990697474
16.2947012845
16.2877919873
16.2786783133
16.2675739311
16.2545798529
16.2396896927
16.222790784
16.2036570034
16.1819349477
16.1571195581
16.1285163395
16.0952056375
16.0559272747
16.0093100797
15.9524992784
15.8874404812
15.7884672324
-3.62773595284
-3.38690139595
-3.23678103602
-3.05831622054
-2.85654513908
-2.647662108
-2.40328934871
-2.0782865384
-1.59340764743
-1.35852822396
-1.21566418786
-1.02829882534
-0.818531484709
-0.606600595648
-0.381217004742
-0.109007624505
0.199780198386
0.500133928813
0.639706910364
0.724024263127
0.869489320676
1.05661359234
1.267714523
1.51102084419
1.7722847094
1.99952833831
2.16171990294
2.32286591835
2.53442964481
2.77826001977
3.0296665909
3.26876019519
3.48063216764
3.66823038428
3.8560370908
4.06079325754
4.27830773686
4.49961350138
4.71667617874
4.92523396336
5.12646536423
5.32773953759
5.53518415339
5.74811695518
5.96294550193
6.17584848179
6.38480064377
6.5900865379
6.79465370205
7.0011465288
7.2091528454
7.41650949385
7.62168064623
7.82456653982
8.02653769224
8.2289548416
8.43170196552
8.63364821607
8.83383773339
9.03202402594
9.22876748921
9.42466070883
9.6196500839
9.81328062689
10.0052971494
10.1959282891
10.3854519421
10.5738553838
10.7608621559
10.9462927028
11.1302490319
11.3128990065
11.4942259709
11.6740580209
11.8522759703
12.0289217035
12.2041065266
12.3778023702
12.5498896519
12.7202717485
12.8889398937
13.0559309011
13.2211696236
13.3845098188
13.5458065336
13.7049817816
13.8619979165
14.0167922757
14.1692586159
14.3192979358
14.4667945015
14.6115947992
14.7534775336
14.8921883632
15.027413322
15.1587669089
15.2857584193
15.4078192391
15.5242820558
15.6343891322
15.7372991149
15.8321524428
15.9181282101
15.9945312283
16.0608942766
16.1170744008
16.1633324589
16.2003482111
16.229018972
16.2503092515
16.2652249398
16.2747325297
16.2796951566
16.2808467956
16.2787800155
16.2739528034
16.2666971572
16.2572256125
16.2456365555
16.2319188802
16.2159505417
16.1974916365
16.176169595
16.1514578082
16.1226399939
16.0887807454
16.0486251647
16.0008208662
15.9426786333
15.8758980204
15.7768665319
-5.5816848926
-5.33367007855
-5.17641432812
-4.98187473484
-4.75493841526
-4.49312508838
-4.16072405144
-3.67174728697
-3.4883282447
-3.33111448744
-3.12037627417
-2.8832277881
-2.62343169326
-2.30443942316
-1.9378095271
-1.57201932972
-1.38746294116
-1.26825288812
-1.0773296924
-0.844000818905
-0.598287239543
-0.336708151473
-0.0485440496099
0.240357797437
0.467890549585
0.605142736788
0.722804189209
0.885952905
1.08869840522
1.31769879035
1.5693093027
1.82599075395
2.05590298286
2.24869444371
2.43560659247
2.64378211089
2.86808842231
3.09487926482
3.31290782821
3.51620424154
3.70717815251
3.89804080362
4.09811208639
4.30649398723
4.51814563053
4.72812389646
4.93395148603
5.13610209272
5.33844970348
5.54446960972
5.75401213842
5.96496365066
6.17493320098
6.38259592504
6.58803368703
6.79281869649
6.99842181879
7.20469357891
7.41043552402
7.61472184607
7.81743981716
8.01930903028
8.22107756059
8.42270272885
8.62352695419
8.82294550483
9.02075390269
9.21722688876
9.41267521726
9.6070957597
9.80024099712
9.99194723229
10.1823265872
10.3715125988
10.5595057343
10.7461423848
10.9313011705
11.1150221717
11.29738287
11.4783691231
11.6578713418
11.835804726
12.0121748989
12.1870310197
12.3603449261
12.5320310343
12.7020117427
12.8702565708
13.0367609849
13.2014535659
13.364215892
13.52492507
13.6834974532
13.8398720677
13.9939743704
14.145698212
14.2949355798
14.4415553759
14.5853961666
14.7262371281
14.8638231838
14.9978388866
15.1279060416
15.2535572829
15.3742545828
15.4893741584
15.598223066
15.7000444236
15.7940783156
15.8796071043
15.9560373037
16.0229815488
16.0803402375
16.1284076227
16.1676310584
16.1986565906
16.2224441209
16.2399452187
16.2520214005
16.2594628691
16.2629603727
16.2630769744
16.2602539935
16.2548153596
16.2469680821
16.2368046505
16.2243067237
16.209342079
16.1916567913
16.1708605865
16.1464077637
16.1175643732
16.0833829264
16.0426175471
15.9939334008
15.9348121924
15.8666544493
15.7681682542
-7.68069024511
-7.41810356441
-7.24974932241