/*--------------------------------*- C++ -*----------------------------------*\
| =========                 |                                                 |
| \\      /  F ield         | OpenFOAM: The Open Source CFD Toolbox           |
|  \\    /   O peration     | Version:  2.3.1                                 |
|   \\  /    A nd           | Web:      www.OpenFOAM.org                      |
|    \\/     M anipulation  |                                                 |
\*---------------------------------------------------------------------------*/
FoamFile
{
    version     2.0;
    format      ascii;
    class       surfaceScalarField;
    location    "200";
    object      phi;
}
// * * * * * * * * * * * * * * * * * * * * * * * * * * * * * * * * * * * * * //

dimensions      [0 3 -1 0 0 0 0];

internalField   nonuniform List<scalar> 
19742
(
3.08874021442e-06
4.48998812668e-08
3.01653100585e-06
7.22093146563e-08
2.95701117275e-06
5.95199310893e-08
2.89828451183e-06
5.87267597752e-08
2.84327298616e-06
5.50116209136e-08
2.79348014279e-06
4.97929469981e-08
2.74905192261e-06
4.4428326615e-08
2.70986073331e-06
3.9191280591e-08
2.67579673086e-06
3.40640849361e-08
2.64682566376e-06
2.89711425631e-08
2.62303540733e-06
2.37903285058e-08
2.60470969535e-06
1.83257763621e-08
2.59245997184e-06
1.22497817653e-08
2.58801985848e-06
4.44016735043e-09
2.59539824714e-06
-7.37833917574e-09
2.62416234581e-06
-2.87640511059e-08
2.70541155347e-06
-8.12491665545e-08
-2.39474835958e-07
2.9448864353e-06
3.46925566604e-06
3.18545478096e-08
3.46054336663e-06
8.09217038113e-08
3.44898451871e-06
7.10788663962e-08
3.43819889533e-06
6.95124712979e-08
3.42718872797e-06
6.60218755536e-08
3.41647686349e-06
6.05049036935e-08
3.40652061434e-06
5.43846675363e-08
3.39773736678e-06
4.79746076143e-08
3.39058467102e-06
4.12168525676e-08
3.38557925707e-06
3.39766220614e-08
3.38335039232e-06
2.60192564747e-08
3.38476614621e-06
1.6910077507e-08
3.39136451295e-06
5.6514663005e-09
3.40542665035e-06
-9.62192497041e-09
3.43066763636e-06
-3.26192818065e-08
3.47439022915e-06
-7.24866043086e-08
3.54676876855e-06
-1.53627670284e-07
-3.21457911074e-07
3.62875187459e-06
3.8100169284e-06
3.38326027099e-08
3.82071885712e-06
7.02198374662e-08
3.82608176216e-06
6.57160236599e-08
3.83236316679e-06
6.32311323042e-08
3.83852114478e-06
5.98639638658e-08
3.84461075419e-06
5.44153671608e-08
3.85110864844e-06
4.78868462266e-08
3.85845006133e-06
4.0633260048e-08
3.86707753625e-06
3.2589436825e-08
3.87750971476e-06
2.35444987823e-08
3.89042271677e-06
1.31063070872e-08
3.90681632122e-06
5.16520085084e-10
3.92804071235e-06
-1.55728815785e-08
3.95611862255e-06
-3.76997958735e-08
3.99449034243e-06
-7.09909653287e-08
4.04779460421e-06
-1.25790832803e-07
4.11645871405e-06
-2.22291749308e-07
-3.86206506579e-07
4.18120733757e-06
4.20700319246e-06
3.1235860807e-08
4.21849113648e-06
5.87319522644e-08
4.22624119222e-06
5.79660272634e-08
4.23444224859e-06
5.50301378865e-08
4.24320468295e-06
5.11015928116e-08
4.25256855851e-06
4.5051558594e-08
4.26290747932e-06
3.7547990197e-08
4.27458281601e-06
2.89579829309e-08
4.28797055943e-06
1.9201746604e-08
4.30354423435e-06
7.97087529096e-09
4.32194348378e-06
-5.29289544537e-09
4.34402759266e-06
-2.15675449323e-08
4.37101828895e-06
-4.2563539558e-08
4.40460438369e-06
-7.12858547701e-08
4.4466209111e-06
-1.1300746035e-07
4.49739008612e-06
-1.76559976599e-07
4.55000561172e-06
-2.7490724709e-07
-4.17453496437e-07
4.58125262634e-06
4.64193152495e-06
2.65119550146e-08
4.65240251438e-06
4.82610085119e-08
4.66111752675e-06
4.92510612639e-08
4.67029907523e-06
4.58486371541e-08
4.68044611208e-06
4.09546061117e-08
4.69157276827e-06
3.39249551775e-08
4.70393632594e-06
2.51844849912e-08
4.71786272324e-06
1.50316336294e-08
4.73372185111e-06
3.34266344617e-09
4.75197216229e-06
-1.02793938045e-08
4.77320385036e-06
-2.65245434538e-08
4.79816243106e-06
-4.65260894952e-08
4.8277324854e-06
-7.21335600752e-08
4.86273263372e-06
-1.06285972637e-07
4.90320756736e-06
-1.53482365298e-07
4.94659710406e-06
-2.19949486975e-07
4.98403790887e-06
-3.12348028526e-07
-4.30881589166e-07
4.99746603263e-06
5.11977865487e-06
2.12824861442e-08
5.12979712831e-06
3.82425880231e-08
5.13945440087e-06
3.95938417835e-08
5.14967299005e-06
3.56301015997e-08
5.16097277723e-06
2.96548736877e-08
5.17341082242e-06
2.1486964379e-08
5.18721208283e-06
1.13832769063e-08
5.2026953141e-06
-4.5154991277e-10
5.22021919815e-06
-1.41811763462e-08
5.24019975374e-06
-3.02599081288e-08
5.2631138683e-06
-4.94386194562e-08
5.28946558252e-06
-7.28777689642e-08
5.31964870593e-06
-1.02316651937e-07
5.35360253432e-06
-1.40239772889e-07
5.39004988732e-06
-1.89929691062e-07
5.42512858246e-06
-2.55028158265e-07
5.45062291753e-06
-3.37842335817e-07
-4.34412570825e-07
5.4541539188e-06
5.64615700956e-06
1.61358110949e-08
5.65592260121e-06
2.84770427227e-08
5.66629511341e-06
2.92213754647e-08
5.67741424645e-06
2.45110160076e-08
5.68970179165e-06
1.73673769293e-08
5.70324713777e-06
7.94166771284e-09
5.71824286334e-06
-3.61240139538e-09
5.73497177698e-06
-1.71804194988e-08
5.75374058349e-06
-3.29499424728e-08
5.77486718767e-06
-5.13864736701e-08
5.79865165831e-06
-7.32230547693e-08
5.82529091153e-06
-9.95169888919e-08
5.8546881079e-06
-1.31713819065e-07
5.88609197914e-06
-1.71643615577e-07
5.91749172997e-06
-2.21329417608e-07
5.94482806784e-06
-2.82364470716e-07
5.96148414545e-06
-3.5449839171e-07
-4.32508717458e-07
5.95958032074e-06
4.4097952852e-06
1.24954364e-08
4.41655619628e-06
2.17161882567e-08
4.42430793694e-06
2.14696906634e-08
4.43276263136e-06
1.60563783594e-08
4.44212234046e-06
8.00772335057e-09
4.45247252119e-06
-2.40845835636e-09
4.46392804024e-06
-1.50678700246e-08
4.4766576147e-06
-2.99099465787e-08
4.49084443982e-06
-4.71367254315e-08
4.50665670865e-06
-6.71987022366e-08
4.52420772022e-06
-9.0774030935e-08
4.54347539952e-06
-1.18784636013e-07
4.56415567936e-06
-1.52394070342e-07
4.58542917031e-06
-1.92917081057e-07
4.60564616234e-06
-2.41546386175e-07
4.62204051886e-06
-2.98758806914e-07
4.63077128858e-06
-3.63229138862e-07
-4.29831487031e-07
4.62809408422e-06
5.14375734353e-06
8.66877794812e-09
5.15089063679e-06
1.45829430107e-08
5.15938282452e-06
1.29775522997e-08
5.16882851337e-06
6.61073945043e-09
5.17933581622e-06
-2.49952869972e-09
5.1909543351e-06
-1.40269283766e-08
5.20376325814e-06
-2.78767454933e-08
5.2178850753e-06
-4.40317211758e-08
5.23343808376e-06
-6.26896931043e-08
5.25049313898e-06
-8.42537214798e-08
5.26901784208e-06
-1.0929869996e-07
5.288784133e-06
-1.38550897326e-07
5.30922596975e-06
-1.72835879597e-07
5.32924958181e-06
-2.12940669252e-07
5.34703598796e-06
-2.5933277105e-07
5.35996198239e-06
-3.11684780162e-07
5.36488451889e-06
-3.68151653926e-07
-4.2416647499e-07
5.359219533e-06
5.99985278407e-06
4.7017138828e-09
6.00726968836e-06
7.16609593636e-09
6.01639955504e-06
3.84774286459e-09
6.02673848419e-06
-3.72813279525e-09
6.03829260076e-06
-1.40535902263e-08
6.05105608956e-06
-2.67903637855e-08
6.06505152049e-06
-4.18721275745e-08
6.08033067403e-06
-5.93108292154e-08
6.09691979538e-06
-7.92787739596e-08
6.11476596153e-06
-1.02099849408e-07
6.13367298856e-06
-1.2820569429e-07
6.15321049782e-06
-1.58088375557e-07
6.1725951204e-06
-1.92220476457e-07
6.19056328433e-06
-2.30908805515e-07
6.20528960907e-06
-2.74059076444e-07
6.21445896131e-06
-3.20854111526e-07
6.21565547044e-06
-3.69348139245e-07
-4.15755384556e-07
6.20724440633e-06
6.99842116396e-06
6.49497398247e-10
7.00600480183e-06
-4.17487491977e-10
7.01562902866e-06
-5.77642880374e-09
7.02669712326e-06
-1.47961722543e-08
7.03910009245e-06
-2.64565050529e-08
7.05276425139e-06
-4.04544706855e-08
7.0676358917e-06
-5.67437188033e-08
7.08367245381e-06
-7.53473465373e-08
7.10078518264e-06
-9.6391460906e-08
7.11877996762e-06
-1.20094598012e-07
7.13729374616e-06
-1.46719437483e-07
7.15571814244e-06
-1.76512743317e-07
7.17311847041e-06
-2.09620768954e-07
7.18817521951e-06
-2.45965532791e-07
7.19919863133e-06
-2.85082460953e-07
7.20428859659e-06
-3.25944059584e-07
7.20172129301e-06
-3.66780806781e-07
-4.04638677511e-07
7.19060460864e-06
8.16318401395e-06
-3.41574648847e-09
8.17079806728e-06
-8.03148344443e-09
8.18070770643e-06
-1.56860117766e-08
8.1922479592e-06
-2.63363690348e-08
8.20518639841e-06
-3.93948901119e-08
8.21936311472e-06
-5.46311345315e-08
8.23462979052e-06
-7.20103446278e-08
8.25083014325e-06
-9.15476561314e-08
8.26774551177e-06
-1.13306788038e-07
8.28503745328e-06
-1.37386502185e-07
8.30219374142e-06
-1.63875692791e-07
8.31847684282e-06
-1.92795807512e-07
8.33288677378e-06
-2.24030668347e-07
8.34416370286e-06
-2.57242428433e-07
8.35086526495e-06
-2.91784001865e-07
8.35155313631e-06
-3.2663190344e-07
8.3451100816e-06
-3.60337735375e-07
-3.90710639954e-07
8.33118207755e-06
9.52181133412e-06
-7.40028801718e-09
9.52927941594e-06
-1.5499508541e-08
9.53918104965e-06
-2.55875877331e-08
9.55081632654e-06
-3.79715896149e-08
9.56382944181e-06
-5.24079496176e-08
9.57795671401e-06
-6.87583510943e-08
9.59294120823e-06
-8.69947915336e-08
9.60850285749e-06
-1.07109257216e-07
9.62429200734e-06
-1.29095899777e-07
9.63984209943e-06
-1.52936555016e-07
9.65453275953e-06
-1.7856631913e-07
9.66756737819e-06
-2.05830384611e-07
9.67797564543e-06
-2.34438902092e-07
9.68465780419e-06
-2.6392455001e-07
9.68648685575e-06
-2.9361303068e-07
9.6824750613e-06
-3.2262008271e-07
9.67199568118e-06
-3.49858332206e-07
-3.73769989756e-07
9.65505504855e-06
1.11065742437e-05
-1.11787035792e-08
1.11136584892e-05
-2.25836966624e-08
1.11231571329e-05
-3.50861740896e-08
1.11343623116e-05
-4.91767124074e-08
1.1146808578e-05
-6.48541574756e-08
1.11601210794e-05
-8.20707980852e-08
1.1173930952e-05
-1.00804609565e-07
1.11878403508e-05
-1.21018612159e-07
1.12013877109e-05
-1.42643214672e-07
1.12140166905e-05
-1.65565499342e-07
1.12250597182e-05
-1.89609303068e-07
1.12337413124e-05
-2.14511945525e-07
1.12392073183e-05
-2.39904860215e-07
1.12405862305e-05
-2.65303437483e-07
1.12370848587e-05
-2.90111620696e-07
1.12281100965e-05
-3.13645304798e-07
1.12134015542e-05
-3.35149755634e-07
-3.53555035759e-07
1.11931866113e-05
1.29551163373e-05
-1.45875826841e-08
1.29614996219e-05
-2.89669227451e-08
1.29700854056e-05
-4.36719043098e-08
1.29801753736e-05
-5.92666204894e-08
1.29912200321e-05
-7.58987592653e-08
1.30027437505e-05
-9.35944565797e-08
1.30142799977e-05
-1.12340804084e-07
1.30253401513e-05
-1.32078714684e-07
1.30353921911e-05
-1.52695210431e-07
1.30438474054e-05
-1.74020670546e-07
1.30500618199e-05
-1.95823678443e-07
1.30533558893e-05
-2.17805971021e-07
1.30530535344e-05
-2.39602469043e-07
1.30485396067e-05
-2.60789471643e-07
1.30393306417e-05
-2.8090262776e-07
1.30251484971e-05
-2.99463128246e-07
1.30059860724e-05
-3.15987309394e-07
-3.29761616425e-07
1.29821926848e-05
1.51113544526e-05
-1.74243256993e-08
1.51166406292e-05
-3.42530447994e-08
1.51236984886e-05
-5.07296999926e-08
1.51318511967e-05
-6.74192743987e-08
1.51404991459e-05
-8.45466434967e-08
1.51490967934e-05
-1.02192048063e-07
1.51571155148e-05
-1.20359465218e-07
1.51640233629e-05
-1.38986513323e-07
1.51692765579e-05
-1.57948354319e-07
1.51723201091e-05
-1.77064178677e-07
1.51725999818e-05
-1.96103506948e-07
1.51695874627e-05
-2.14793410235e-07
1.51628139132e-05
-2.328288806e-07
1.51519119236e-05
-2.49887443914e-07
1.51366568334e-05
-2.6564750597e-07
1.51170012204e-05
-2.79807479198e-07
1.50930985895e-05
-2.92084654233e-07
-3.02015905274e-07
1.50653529162e-05
1.76265278219e-05
-1.94503039821e-08
1.76302715334e-05
-3.79966850704e-08
1.76351344306e-05
-5.55925369863e-08
1.76404716905e-05
-7.27564641687e-08
1.76456712955e-05
-8.9746187908e-08
1.76501650873e-05
-1.06685771909e-07
1.76534161979e-05
-1.23610521384e-07
1.76549108433e-05
-1.40481097264e-07
1.76541586266e-05
-1.57196092029e-07
1.765070014e-05
-1.73605636442e-07
1.76441209566e-05
-1.89524284791e-07
1.76340713681e-05
-2.04743769953e-07
1.76202889517e-05
-2.19046429725e-07
1.76026207632e-05
-2.32219207436e-07
1.75810406489e-05
-2.44067361393e-07
1.75556586062e-05
-2.54425391225e-07
1.75267230409e-05
-2.63149062632e-07
-2.6994677444e-07
1.74946539572e-05
1.78271984961e-05
-2.04071731253e-08
1.78289263229e-05
-3.97244407535e-08
1.78309576953e-05
-5.76238367349e-08
1.78327541409e-05
-7.4552838925e-08
1.78337928021e-05
-9.07847847266e-08
1.78335972986e-05
-1.06490200821e-07
1.78317370388e-05
-1.21750207076e-07
1.78278241674e-05
-1.36568163579e-07
1.78215163749e-05
-1.50888253745e-07
1.78125236055e-05
-1.64612810794e-07
1.78006165812e-05
-1.77617220997e-07
1.77856365472e-05
-1.89763682188e-07
1.77675043086e-05
-2.00914154569e-07
1.77462269238e-05
-2.10941771433e-07
1.77218998349e-05
-2.19740239613e-07
1.76947039986e-05
-2.27229505477e-07
1.76649005483e-05
-2.33345582079e-07
-2.3789991363e-07
1.76328537334e-05
1.58815697886e-05
-2.06058339363e-08
1.58818610601e-05
-4.00156399225e-08
1.58819010367e-05
-5.7663743184e-08
1.58812581585e-05
-7.39098922491e-08
1.58795262032e-05
-8.9052759544e-08
1.58763612615e-05
-1.03325201189e-07
1.58714730706e-05
-1.16861948822e-07
1.58646185251e-05
-1.29713572483e-07
1.58556036001e-05
-1.41873265926e-07
1.58442861608e-05
-1.53295334454e-07
1.58305784233e-05
-1.63909424176e-07
1.58144489282e-05
-1.7363415541e-07
1.57959238471e-05
-1.8238901487e-07
1.57750859821e-05
-1.9010387697e-07
1.57520714745e-05
-1.96725676759e-07
1.57270636163e-05
-2.02221620688e-07
1.57002872638e-05
-2.06569180066e-07
-2.09638481185e-07
1.5672025855e-05
1.41485218469e-05
-2.04389186378e-08
1.41481433516e-05
-3.96370823021e-08
1.41472610652e-05
-5.67813898554e-08
1.41454672798e-05
-7.21160437934e-08
1.4142422712e-05
-8.60081290402e-08
1.4137880929e-05
-9.87833522967e-08
1.41316514731e-05
-1.10632439327e-07
1.41235887873e-05
-1.21650819332e-07
1.41135941268e-05
-1.31878564209e-07
1.41016149517e-05
-1.41316097674e-07
1.40876426531e-05
-1.49937092522e-07
1.40717110273e-05
-1.5770246869e-07
1.40538940885e-05
-1.64572046619e-07
1.40343029737e-05
-1.70512703101e-07
1.40130810536e-05
-1.7550373172e-07
1.39903983465e-05
-1.79538860244e-07
1.39664467396e-05
-1.82617552484e-07
-1.84646175329e-07
1.39414544804e-05
1.26047241022e-05
-2.0118258536e-08
1.26041554898e-05
-3.90684142139e-08
1.2603021943e-05
-5.56477898922e-08
1.26008559919e-05
-6.9950034112e-08
1.25973621794e-05
-8.25142595236e-08
1.25923737339e-05
-9.37948499725e-08
1.25857699631e-05
-1.04028610149e-07
1.25774703467e-05
-1.13351154072e-07
1.25674387867e-05
-1.21846947431e-07
1.25556781034e-05
-1.29555369895e-07
1.2542224753e-05
-1.36483690816e-07
1.25271458036e-05
-1.42623477027e-07
1.25105361748e-05
-1.47962369467e-07
1.24925150331e-05
-1.52491521461e-07
1.24732216485e-05
-1.56210303155e-07
1.24528108448e-05
-1.59128021993e-07
1.24314501844e-05
-1.61256851423e-07
-1.62527132538e-07
1.24093311638e-05
1.12294131461e-05
-1.97164636321e-08
1.12289676746e-05
-3.86228952723e-08
1.12280036201e-05
-5.46836860429e-08
1.12259077715e-05
-6.7854139539e-08
1.12224464689e-05
-7.90529068026e-08
1.12175279819e-05
-8.88763154261e-08
1.1211077314e-05
-9.75778944911e-08
1.12030580706e-05
-1.05331861556e-07
1.11934773522e-05
-1.12266184775e-07
1.11823733649e-05
-1.18451338163e-07
1.1169808396e-05
-1.23918673549e-07
1.11558659866e-05
-1.28681027957e-07
1.11406482224e-05
-1.32744553802e-07
1.11242723722e-05
-1.36115637085e-07
1.11068675043e-05
-1.38805381212e-07
1.10885710883e-05
-1.40831579015e-07
1.10695277987e-05
-1.4221351285e-07
-1.42897792429e-07
1.10498984769e-05
1.00040871804e-05
-1.91785385311e-08
1.00040022513e-05
-3.85379237559e-08
1.00034747178e-05
-5.41561109956e-08
1.00016778177e-05
-6.60571957097e-08
9.99850204523e-06
-7.58770911554e-08
9.99392488327e-06
-8.42991119371e-08
9.98789875334e-06
-9.15517259143e-08
9.98042153207e-06
-9.78546050321e-08
9.97153199215e-06
-1.03376603249e-07
9.96129018162e-06
-1.0820948788e-07
9.94977180755e-06
-1.12400260294e-07
9.93706683835e-06
-1.15976016315e-07
9.92327717574e-06
-1.18954853832e-07
9.90851394939e-06
-1.21352362103e-07
9.89289520805e-06
-1.23186604448e-07
9.87654474315e-06
-1.24481063655e-07
9.85959462946e-06
-1.25263375694e-07
-1.25498100619e-07
9.8421949852e-06
8.91225584478e-06
-1.83287307653e-08
8.91272934749e-06
-3.90113863251e-08
8.91274474782e-06
-5.41714717969e-08
8.9113094337e-06
-6.46218437974e-08
8.90852130135e-06
-7.3088919233e-08
8.90439082194e-06
-8.0168596842e-08
8.89888446104e-06
-8.60453341949e-08
8.89203505124e-06
-9.10051603513e-08
8.88390794159e-06
-9.52494640507e-08
8.87457701103e-06
-9.8878522626e-08
8.86412374708e-06
-1.01946962469e-07
8.85263796586e-06
-1.0449020176e-07
8.84021607012e-06
-1.06532920582e-07
8.82695861537e-06
-1.0809486847e-07
8.81296795948e-06
-1.0919590519e-07
8.79834665145e-06
-1.09859720811e-07
8.78319990034e-06
-1.10116577078e-07
-1.0994043929e-07
8.76764226308e-06
7.9392939218e-06
-1.69497567398e-08
7.94060949259e-06
-4.0326918024e-08
7.94107741184e-06
-5.46393540558e-08
7.93992708274e-06
-6.34714801107e-08
7.93754441154e-06
-7.07062096583e-08
7.93389168935e-06
-7.65158414759e-08
7.9289292081e-06
-8.10828223552e-08
7.92271637894e-06
-8.47923037821e-08
7.91533487492e-06
-8.78679298116e-08
7.90686587598e-06
-9.04094937535e-08
7.89739358246e-06
-9.24746406009e-08
7.88700655379e-06
-9.41031428171e-08
7.87579621526e-06
-9.53225491488e-08
7.86385487349e-06
-9.61534921126e-08
7.85127402915e-06
-9.6615023317e-08
7.8381444666e-06
-9.6730118925e-08
7.82456641001e-06
-9.65384809683e-08
-9.60520706768e-08
7.81067808724e-06
7.07140311801e-06
-1.4018655713e-08
7.07421974459e-06
-4.31435057351e-08
7.07491608651e-06
-5.53356581342e-08
7.07385032359e-06
-6.2405683011e-08
7.07173565963e-06
-6.85915098396e-08
7.06843765889e-06
-7.32178081716e-08
7.06392556432e-06
-7.65706992452e-08
7.05827378831e-06
-7.91404991369e-08
7.05155892119e-06
-8.11530352792e-08
7.04385400545e-06
-8.27045501118e-08
7.03523669108e-06
-8.38572983174e-08
7.02578938654e-06
-8.46558096367e-08
7.0155967607e-06
-8.51298925347e-08
7.00474274661e-06
-8.52994447702e-08
6.99330618863e-06
-8.51784325021e-08
6.98135419928e-06
-8.47780935743e-08
6.96893508293e-06
-8.41193238251e-08
-8.31884202684e-08
6.95607147924e-06
6.29576390075e-06
-7.2680115409e-09
6.30142469228e-06
-4.88042536674e-08
6.30260884485e-06
-5.65197806026e-08
6.30192087627e-06
-6.17176863096e-08
6.30004526412e-06
-6.67158626626e-08
6.29678658229e-06
-6.99590935786e-08
6.29226422412e-06
-7.20483136431e-08
6.28663821867e-06
-7.35144548825e-08
6.28001348922e-06
-7.45282882312e-08
6.27247204762e-06
-7.51630813296e-08
6.26409245821e-06
-7.54776818373e-08
6.25495359164e-06
-7.55169174088e-08
6.24513472403e-06
-7.53109850708e-08
6.23471422205e-06
-7.48789209919e-08
6.2237662528e-06
-7.42304346617e-08
6.21235463697e-06
-7.33664446917e-08
6.20053201363e-06
-7.22966612481e-08
-7.10120772288e-08
6.18835570887e-06
5.59994533223e-06
7.68831303863e-09
5.60724510009e-06
-5.61039650349e-08
5.60798509528e-06
-5.72597306162e-08
5.60807373742e-06
-6.18062957647e-08
5.6067803573e-06
-6.54224428959e-08
5.60361258634e-06
-6.67912873156e-08
5.59877655831e-06
-6.721224722e-08
5.59250719579e-06
-6.72450538767e-08
5.58497759946e-06
-6.69986654222e-08
5.57633193855e-06
-6.65173941076e-08
5.56669869343e-06
-6.58444105527e-08
5.55619523896e-06
-6.50134244246e-08
5.54493126301e-06
-6.40469761368e-08
5.533010519e-06
-6.2958148125e-08
5.52052916328e-06
-6.17490550377e-08
5.50756418751e-06
-6.04014386563e-08
5.49413124943e-06
-5.88636922444e-08
-5.68803519864e-08
5.47999956659e-06
5.00788857428e-06
2.10817985823e-09
5.00214254719e-06
-5.03578657222e-08
4.99069226823e-06
-4.58093954776e-08
4.98012001175e-06
-5.12339973168e-08
4.96851303751e-06
-5.38154221827e-08
4.95551311658e-06
-5.37913227168e-08
4.94111523688e-06
-5.28143214638e-08
4.92535328829e-06
-5.14830592536e-08
4.90832347376e-06
-4.99688194529e-08
4.8901636526e-06
-4.83575427823e-08
4.87102663502e-06
-4.67073587248e-08
4.85106756696e-06
-4.50543146025e-08
4.83043909722e-06
-4.34184651388e-08
4.80928972079e-06
-4.18087417646e-08
4.78776459054e-06
-4.0223896904e-08
4.76600862698e-06
-3.86454445016e-08
4.74415397077e-06
-3.70090008012e-08
-3.49519281309e-08
4.72222558374e-06
4.45865824403e-06
4.40830038372e-06
4.36249099236e-06
4.31125700006e-06
4.2574415829e-06
4.20365026576e-06
4.15083595074e-06
4.099352896e-06
4.04938408114e-06
4.0010265437e-06
3.95431919222e-06
3.90926488572e-06
3.8658464269e-06
3.82403769089e-06
3.78381380082e-06
3.74516836437e-06
3.70815937344e-06
3.67320745445e-06
1.63172602564e-06
-1.63172880103e-06
2.00760027523e-06
-3.75877773457e-07
2.07815003318e-06
-7.0552474333e-08
2.09293466516e-06
-1.47871309529e-08
2.11413178298e-06
-2.11995525011e-08
2.13393683206e-06
-1.98075366977e-08
2.14979053143e-06
-1.58561438132e-08
2.16245376796e-06
-1.26657216693e-08
2.17298626329e-06
-1.05349212276e-08
2.18201503816e-06
-9.0312250125e-09
2.18987462463e-06
-7.86196603785e-09
2.19677245247e-06
-6.90022223939e-09
2.20284913226e-06
-6.07900259723e-09
2.20819503628e-06
-5.34824299604e-09
2.21286360078e-06
-4.67084603134e-09
2.21688125115e-06
-4.01996450789e-09
2.22025348596e-06
-3.37452726831e-09
2.2229634954e-06
-2.71237325943e-09
2.22496928937e-06
-2.0081989596e-09
2.22619331867e-06
-1.22657418641e-09
2.22652179626e-06
-3.31158380971e-10
2.22578004087e-06
7.38825804745e-10
2.22362613366e-06
2.15069676454e-09
2.21943526474e-06
4.18724241406e-09
2.21210188361e-06
7.32914421983e-09
2.1995477203e-06
1.25489037746e-08
2.1771552829e-06
2.23864865906e-08
2.13333709399e-06
4.38116912791e-08
1.08702000453e-07
2.02462926105e-06
1.84233117008e-06
-1.84233361049e-06
2.43655407219e-06
-5.94224952085e-07
3.06472477316e-06
-6.28172577327e-07
2.13852622754e-06
-7.05532126547e-07
2.19265454303e-06
-4.30008288514e-07
2.31988518286e-06
-1.97785225013e-07
2.39882739844e-06
-9.37314444178e-08
2.44604721142e-06
-6.8421380731e-08
2.48091684603e-06
-5.46792238508e-08
2.50747714941e-06
-4.24184375485e-08
2.52774624817e-06
-3.29368469342e-08
2.5433030462e-06
-2.60936739796e-08
2.55525122629e-06
-2.09813877947e-08
2.56436153276e-06
-1.69741756874e-08
2.57120716079e-06
-1.3747778064e-08
2.57623033398e-06
-1.11040231241e-08
2.57977428231e-06
-8.89406876414e-09
2.58210447496e-06
-7.00284488558e-09
2.58342165593e-06
-5.33899988233e-09
2.58387149037e-06
-3.82616859692e-09
2.58354932409e-06
-2.3920965523e-09
2.5825018986e-06
-9.62657272198e-10
2.58073619818e-06
5.37105551996e-10
2.57816317463e-06
2.23978698573e-09
2.5745530383e-06
4.34666365096e-09
2.56956058057e-06
7.14069830475e-09
2.56263936561e-06
1.11056604028e-08
2.55282922326e-06
1.71360807407e-08
2.53839150387e-06
2.69827443368e-08
2.516125478e-06
4.46480871603e-08
2.48020818973e-06
7.97243944705e-08
1.57963534198e-07
2.43094242728e-06
1.97911686567e-06
-1.97911886075e-06
2.46305418435e-06
-4.83939041283e-07
2.84970045344e-06
-3.86648027469e-07
3.50194517351e-06
-6.52246297783e-07
2.51108959322e-06
-8.51479554855e-07
2.6000424599e-06
-6.83179460083e-07
2.60646670288e-06
-6.34598580667e-07
2.49755266593e-06
-5.966196261e-07
2.50707510817e-06
-4.39532240924e-07
2.57550606712e-06
-2.66217666277e-07
2.6389663314e-06
-1.57193144947e-07
2.68040438703e-06
-1.0986087721e-07
2.70937731648e-06
-8.36535641121e-08
2.73073739368e-06
-6.37799306542e-08
2.74641055363e-06
-4.8611393498e-08
2.75767041362e-06
-3.7354916488e-08
2.76549876851e-06
-2.88110948449e-08
2.77063212359e-06
-2.21088709707e-08
2.77362913945e-06
-1.67461048944e-08
2.77492556736e-06
-1.24017468222e-08
2.77486688453e-06
-8.83665764025e-09
2.77372720902e-06
-5.86443018771e-09
2.77171858219e-06
-3.33162188527e-09
2.76899714304e-06
-1.10598255989e-09
2.7656738162e-06
9.2996577225e-10
2.76179377015e-06
2.91609072858e-09
2.75731556075e-06
5.0139666395e-09
2.75214967735e-06
7.40424320252e-09
2.74615083672e-06
1.03439667102e-08
2.7390565573e-06
1.42332966027e-08
2.73043082077e-06
1.97295084892e-08
2.71956958221e-06
2.79951104292e-08
2.70536905444e-06
4.11804981818e-08
2.6863279717e-06
6.36859377386e-08
2.66149859073e-06
1.04550374174e-07
1.82086671404e-07
2.63737238142e-06
2.17686440837e-06
-2.17686548593e-06
2.71889838661e-06
-5.42035016841e-07
3.15010034384e-06
-4.31203163909e-07
3.85708297646e-06
-7.06983794533e-07
2.73660700972e-06
-8.58644124112e-07
2.87378217801e-06
-6.21115581401e-07
3.02965996598e-06
-5.42527170822e-07
3.01766430902e-06
-6.40252130401e-07
2.88639469762e-06
-7.20211217513e-07
2.86922530723e-06
-6.66011319809e-07
2.84384294035e-06
-6.09217200001e-07
2.78726312497e-06
-5.40041193527e-07
2.77459101381e-06
-4.26861424657e-07
2.80368581669e-06
-2.9531377736e-07
2.84248046619e-06
-1.95989050875e-07
2.87185224943e-06
-1.39233963613e-07
2.89237531574e-06
-1.04177891236e-07
2.90691157557e-06
-7.83174983471e-08
2.91686808687e-06
-5.85691659312e-08
2.92314468963e-06
-4.36328206564e-08
2.92650483444e-06
-3.21724885531e-08
2.92756761623e-06
-2.3172934884e-08
2.9268156846e-06
-1.59953997296e-08
2.92463142557e-06
-1.02187439867e-08
2.92132605685e-06
-5.53249151572e-09
2.91715200622e-06
-1.6916145936e-09
2.91230630692e-06
1.51288695662e-09
2.90691229515e-06
4.28679375617e-09
2.90102437633e-06
6.81667438157e-09
2.89467497144e-06
9.26421508678e-09
2.88787210043e-06
1.18155512722e-08
2.88056764769e-06
1.47072999991e-08
2.87264602038e-06
1.82641435301e-08
2.86390453399e-06
2.29731643512e-08
2.85402370561e-06
2.96085863853e-08
2.84254024997e-06
3.94764995386e-08
2.82886837131e-06
5.48499205753e-08
2.81260980291e-06
7.99416468606e-08
2.79484735973e-06
1.2230991412e-07
1.94617079263e-07
2.78231429189e-06
2.36514588676e-06
-2.36514699077e-06
2.9646473251e-06
-5.99502327194e-07
3.44253256431e-06
-4.77886068153e-07
4.21763694591e-06
-7.75105046445e-07
2.9867470765e-06
-9.45976307837e-07
3.13238796334e-06
-6.8767673445e-07
3.29525074481e-06
-5.94066796415e-07
3.26963151589e-06
-6.8136569922e-07
3.14249331534e-06
-7.31506868402e-07
3.1714275162e-06
-6.500508024e-07
3.23357647571e-06
-6.04677137851e-07
3.22099711557e-06
-6.27673577284e-07
3.14908819737e-06
-6.48303425548e-07
3.10220091455e-06
-6.19125067015e-07
3.06025706164e-06
-5.67274618141e-07
3.01734151159e-06
-4.97126575294e-07
2.99631032387e-06
-4.05831173916e-07
3.00272584122e-06
-3.01730162552e-07
3.02158500016e-06
-2.14849098831e-07
3.03865363944e-06
-1.56303458558e-07
3.05094749998e-06
-1.16472638668e-07
3.05927475381e-06
-8.66456089728e-08
3.06430145708e-06
-6.35967535836e-08
3.06649419145e-06
-4.58264092973e-08
3.06632950541e-06
-3.20086789906e-08
3.06425492388e-06
-2.10991993529e-08
3.06065234599e-06
-1.23936849822e-08
3.05584673878e-06
-5.41397034946e-09
3.05012381976e-06
1.89579734e-10
3.04368406897e-06
4.74731444928e-09
3.03664027852e-06
8.55583942142e-09
3.02909718567e-06
1.1829063526e-08
3.02114969504e-06
1.47633146201e-08
3.01285337757e-06
1.75596762635e-08
3.00422555532e-06
2.04424684788e-08
2.99524066947e-06
2.36912433743e-08
2.98582051903e-06
2.76832688224e-08
2.97582526469e-06
3.29673098065e-08
2.9650470362e-06
4.03855671699e-08
2.95322881039e-06
5.12932505825e-08
2.94016651912e-06
6.79103475164e-08
2.92610455883e-06
9.40013622301e-08
2.9128563e-06
1.3555583384e-07
2.01201121624e-07
2.90627013898e-06
2.54854923738e-06
-2.54854993836e-06
3.20383778057e-06
-6.55289223417e-07
3.72603932484e-06
-5.22202344101e-07
4.56642836298e-06
-8.40389763006e-07
3.23513018387e-06
-1.03384948845e-06
3.39359611432e-06
-7.57968956421e-07
3.57119734668e-06
-6.55487882424e-07
3.54397843198e-06
-7.47886806816e-07
3.40173532611e-06
-8.03733746537e-07
3.42843023377e-06
-7.14372253366e-07
3.49167631844e-06
-6.5731357787e-07
3.47916774085e-06
-6.68857659827e-07
3.42222170172e-06
-6.74561667353e-07
3.4112338729e-06
-6.39063814227e-07
3.41727783813e-06
-6.10721883091e-07
3.3944275384e-06
-6.04824317989e-07
3.34368775138e-06
-5.97564441702e-07
3.29466440304e-06
-5.70102552024e-07
3.24908268216e-06
-5.21693460108e-07
3.20981755851e-06
-4.57862364261e-07
3.18474693766e-06
-3.80761440511e-07
3.17840300775e-06
-2.95387061281e-07
3.18345288452e-06
-2.19899837757e-07
3.19040879161e-06
-1.63260198116e-07
3.19561544619e-06
-1.21680172154e-07
3.19863413814e-06
-8.96651517024e-08
3.19952289848e-06
-6.44864113643e-08
3.19839301667e-06
-4.46973935491e-08
3.19546515006e-06
-2.90817221074e-08
3.19101797539e-06
-1.66528988162e-08
3.18533620457e-06
-6.71282896816e-09
3.17869294935e-06
1.22840875957e-09
3.1712599545e-06
7.62165943883e-09
3.16314996565e-06
1.28564264606e-08
3.154500717e-06
1.72041672815e-08
3.14542566829e-06
2.09032218885e-08
3.1360124373e-06
2.41755981765e-08
3.12632186644e-06
2.72493141864e-08
3.11638459291e-06
3.03787301894e-08
3.10619820464e-06
3.38766089087e-08
3.09572264495e-06
3.81576925708e-08
3.08487963321e-06
4.38091337186e-08
3.07356281561e-06
5.17010279652e-08
3.06168401079e-06
6.31705275433e-08
3.04930831207e-06
8.02841580409e-08
3.03703512824e-06
1.06272355202e-07
3.02684868784e-06
1.4574003265e-07
2.04467682824e-07
3.02358010149e-06
2.7217345294e-06
-2.72173499332e-06
3.33909463845e-06
-6.17360499109e-07
3.6282924212e-06
-2.89198182019e-07
4.06541315157e-06
-4.37121173311e-07
4.93553937046e-06
-8.70126621969e-07
3.50046332993e-06
-1.11347431961e-06
3.66590542379e-06
-8.20731856249e-07
3.85545298101e-06
-7.11750452325e-07
3.82692640618e-06
-8.11863844223e-07
3.67040851937e-06
-8.77332151994e-07
3.6969067733e-06
-7.84467721318e-07
3.76369978267e-06
-7.22281372644e-07
3.74934851173e-06
-7.33535840931e-07
3.68533565575e-06
-7.39721377815e-07
3.67100377177e-06
-7.00040866023e-07
3.67763366091e-06
-6.63943966101e-07
3.65967121984e-06
-6.50895957341e-07
3.62376729501e-06
-6.38658317715e-07
3.59934513139e-06
-6.14642237703e-07
3.58001845489e-06
-5.91395832177e-07
3.54917121052e-06
-5.73977489562e-07
3.5054780052e-06
-5.53871990922e-07
3.4591876686e-06
-5.23812918144e-07
3.41535644049e-06
-4.77863152551e-07
3.37795108758e-06
-4.20457636917e-07
3.35092329249e-06
-3.53734215371e-07
3.33724888529e-06
-2.81713226388e-07
3.3331361062e-06
-2.15787587686e-07
3.33244100388e-06
-1.62565652347e-07
3.33190299674e-06
-1.21142692094e-07
3.33052882108e-06
-8.82915345399e-08
3.32799087012e-06
-6.19489943573e-08
3.3241533824e-06
-4.08604706342e-08
3.31904327507e-06
-2.39721576905e-08
3.31280225659e-06
-1.0412451267e-08
3.30563785736e-06
4.51020062254e-10
3.29767948616e-06
9.18620603841e-09