/*--------------------------------*- C++ -*----------------------------------*\
| =========                 |                                                 |
| \\      /  F ield         | OpenFOAM: The Open Source CFD Toolbox           |
|  \\    /   O peration     | Version:  2.3.1                                 |
|   \\  /    A nd           | Web:      www.OpenFOAM.org                      |
|    \\/     M anipulation  |                                                 |
\*---------------------------------------------------------------------------*/
FoamFile
{
    version     2.0;
    format      ascii;
    class       volVectorField;
    location    "200";
    object      U;
}
// * * * * * * * * * * * * * * * * * * * * * * * * * * * * * * * * * * * * * //

dimensions      [0 1 -1 0 0 0 0];

internalField   nonuniform List<vector> 
10011
(
(9.8406904275 -1.23875968573 -1.38392463784e-21)
(9.74371042865 -0.732080996732 -2.48661785749e-21)
(9.54931072902 -0.468329727138 -2.9819299025e-21)
(9.34609965565 -0.308921298992 -7.72414239984e-21)
(9.16128596145 -0.208089443941 1.57807227781e-21)
(8.99547042979 -0.142442317974 6.66073914048e-21)
(8.84747435289 -0.0986296698553 -3.42708498299e-20)
(8.71722492009 -0.0689309058341 0)
(8.60489876268 -0.0487073837645 0)
(8.51084913134 -0.0350788658792 0)
(8.43594314818 -0.0262548724813 6.31934115972e-20)
(8.38195834762 -0.0211907578583 6.66961634356e-20)
(8.35215490453 -0.0194410168159 -6.73007004425e-20)
(8.35229050652 -0.0215627364461 -2.85721816107e-19)
(8.39672201414 -0.0298440398054 0)
(8.51590599219 -0.0512897939339 0)
(8.77208938659 -0.101925936022 -1.32708065576e-18)
(9.58370480362 0.228453154205 -2.69650461345e-18)
(10.0343802046 0.446594070119 -1.0275959584e-21)
(10.0275378692 0.425129974918 3.30088222457e-21)
(10.0007343336 0.337406487186 1.16388175918e-21)
(9.96608390753 0.266993351039 4.94396056355e-21)
(9.9339710033 0.212445102435 -1.52930181106e-20)
(9.90406843325 0.170185657206 6.28386545592e-23)
(9.87622491331 0.137562638854 1.63393930083e-20)
(9.85184454297 0.111975896294 0)
(9.8327500431 0.091219536496 0)
(9.82087755916 0.0735362732366 9.47606805291e-20)
(9.81849564289 0.0574373651588 -1.46621379991e-19)
(9.82856294114 0.0414589872808 0)
(9.85521739561 0.0237324894589 0)
(9.90590951478 0.00106027871313 -2.1665621647e-19)
(9.98952695873 -0.0324238780584 0)
(10.1200540956 -0.0895811263918 -4.90755460536e-19)
(10.3115634971 -0.209966184846 1.46883028993e-18)
(10.5683050556 -0.531424388366 2.10129072596e-18)
(9.99378647893 0.0252384213203 1.34095447354e-21)
(10.0070338096 -0.0121880415886 -3.27262489295e-21)
(10.0297067595 -0.0330119828495 1.83756008789e-21)
(10.0466710348 -0.0301794086607 5.94006506322e-21)
(10.063022787 -0.021520207933 7.11749512904e-23)
(10.0800181072 -0.0134210946091 3.48653042612e-20)
(10.097961788 -0.00723454731222 3.6216307897e-20)
(10.1180315229 -0.00348904376712 5.63447936097e-20)
(10.1416974669 -0.00253121377652 -1.91408938244e-20)
(10.1704962033 -0.00467699772941 -4.04565802132e-20)
(10.2062228611 -0.0104200758315 1.23159984118e-19)
(10.2511808426 -0.0207111796432 1.70088083914e-19)
(10.3087046146 -0.0374574175789 1.78981781298e-19)
(10.3822793479 -0.0641584504227 4.85762673833e-23)
(10.476718134 -0.107541250255 5.69173091733e-19)
(10.5980373376 -0.181679458858 -3.78643464623e-19)
(10.7443283856 -0.316253446239 -7.92324042708e-19)
(10.8878808473 -0.552872895258 1.60311646666e-18)
(10.0009143251 0.0175072891976 0)
(10.0171668775 0.0386183369699 2.47391377389e-21)
(10.0425618145 0.048166795418 5.59513846482e-21)
(10.0627035414 0.0546264602612 -6.07788299183e-21)
(10.082593914 0.0563194154087 2.9370327354e-20)
(10.1045202177 0.053678387162 -3.09958311816e-20)
(10.1287600139 0.0481551421919 -2.16285689161e-20)
(10.1559983625 0.0404754457098 -3.77312200107e-20)
(10.1872105499 0.0307057120149 3.10752913662e-20)
(10.2234583594 0.0184888756644 1.16512736546e-22)
(10.2659993521 0.00302071881355 -9.99996804289e-20)
(10.3164184943 -0.0171436987424 -6.94834636622e-20)
(10.3765346981 -0.0443510042701 0)
(10.4486713291 -0.0826221441983 -1.44712094501e-19)
(10.5349769311 -0.139126188642 -3.08420833096e-19)
(10.6352873235 -0.226515863275 -1.59267775982e-19)
(10.7397282242 -0.365799569256 6.60818132653e-19)
(10.8130937018 -0.579279811433 -1.35327261835e-18)
(10.003283368 0.015701028659 0)
(10.0192727965 0.0344054444506 5.23027925865e-22)
(10.0419442014 0.0366965322221 -5.58934654201e-22)
(10.0617876436 0.0348848373742 7.34362583044e-21)
(10.0822784776 0.0314264803766 -7.86847976109e-21)
(10.1052839392 0.0262063744248 -2.21384900892e-20)
(10.1309081967 0.0194572029152 2.32878279541e-20)
(10.1595606666 0.0110992389129 -4.8766347178e-20)
(10.1919727598 0.000658704551963 -2.58318533417e-20)
(10.2289636796 -0.012637692575 5.30032879177e-20)
(10.2714558359 -0.0298917232458 8.28770196896e-20)
(10.3205146141 -0.0527373792603 -1.13888727451e-19)
(10.3772804327 -0.0837649559508 0)
(10.4426832674 -0.127059845839 2.24180834403e-21)
(10.5165635262 -0.189073931814 0)
(10.5954385016 -0.279510483734 2.60458415579e-19)
(10.6677185487 -0.410916461457 2.68972527266e-19)
(10.7049916126 -0.589977737748 -2.61754183677e-19)
(10.0035666388 0.0150505894499 0)
(10.0180532898 0.0288231730926 -4.77690706208e-21)
(10.0387025076 0.0303913988853 -8.08336375782e-21)
(10.0585062324 0.0284913945145 -7.46518270288e-21)
(10.0792136225 0.0251821869839 -4.51181960368e-21)
(10.1022571455 0.0198894363794 2.34914773946e-20)
(10.1278043123 0.0124695525577 -4.92746772391e-20)
(10.1561890658 0.00275804102376 5.13015000472e-20)
(10.1879894945 -0.00972967588141 -6.43217264136e-20)
(10.2238424689 -0.025749159369 4.43361041584e-20)
(10.2643880112 -0.0464361551324 2.36972150712e-20)
(10.3102400071 -0.0734795374687 1.15402078706e-21)
(10.3618227609 -0.109376337264 9.88117499415e-20)
(10.4189524941 -0.1577872787 -4.75274167664e-20)
(10.4799466605 -0.223885313796 2.06353828187e-19)
(10.5398935762 -0.31426765094 -1.02637078868e-19)
(10.5881627398 -0.435273635194 2.17676838581e-19)
(10.6042795896 -0.58585978189 -1.08197366762e-19)
(10.0031760898 0.0117737806266 0)
(10.0159336367 0.0215999317489 3.53857741153e-21)
(10.0347874509 0.0228974563038 4.59254927345e-21)
(10.0541636831 0.0205278583343 -2.86307360707e-21)
(10.0746090218 0.0161825198617 9.87113227054e-21)
(10.0971918784 0.00953867583354 -4.13250178006e-21)
(10.122130904 0.000445732848416 4.26482937714e-21)
(10.1496767324 -0.0112856360393 0)
(10.1802586401 -0.0261214876878 3.63994652122e-20)
(10.2142993781 -0.0448619299687 0)
(10.2521489511 -0.0686601483671 7.74915158064e-20)
(10.2939957632 -0.0991405401276 -4.0564303816e-20)
(10.3396533978 -0.138558752968 3.9966603174e-20)
(10.38814295 -0.189934443556 1.71170377007e-19)
(10.4369818708 -0.257020273319 -2.64647042106e-19)
(10.4810991718 -0.343738372981 2.69141905828e-19)
(10.5119378213 -0.45235881782 -1.84908779835e-19)
(10.5156788879 -0.578452796924 -1.7985910689e-19)
(10.0028586623 0.00892387125254 9.28534161436e-22)
(10.0141843322 0.0161623135073 0)
(10.0314172706 0.0168297239882 0)
(10.049987677 0.0137219602061 8.30430969325e-21)
(10.0698399161 0.00831907223981 -1.72017759134e-20)
(10.0917225846 0.000494889747877 -4.48565764701e-21)
(10.1158194902 -0.00993696608146 2.3062085434e-20)
(10.1422981785 -0.0232176109293 -2.86917435002e-20)
(10.1714267685 -0.0398620981966 -1.97957953247e-20)
(10.2034448293 -0.0606686739457 -1.0124824929e-20)
(10.2384615272 -0.0867468102902 -4.25089887535e-20)
(10.2763416232 -0.119585011962 2.20005469428e-20)
(10.3164920767 -0.16111580737 -1.57763213312e-19)
(10.3575052394 -0.213702009007 4.57055018833e-20)
(10.3966517882 -0.279914512873 0)
(10.4292655024 -0.361853858048 4.88479521663e-20)
(10.4486586575 -0.459626845517 -4.88082921458e-20)
(10.4451943463 -0.567979299378 1.48800684256e-19)
(10.0026085094 0.00651104740264 -8.7993878299e-22)
(10.0127354212 0.0115600454344 0)
(10.0284854819 0.0112686393922 0)
(10.0461125234 0.00734011570303 -9.73193100122e-21)
(10.0652056983 0.000961452048606 9.99063262009e-21)
(10.0862427917 -0.00793315525829 0)
(10.109357457 -0.0195533995799 4.25342104134e-21)
(10.1346242259 -0.0341945071343 -4.2571535661e-21)
(10.1621763888 -0.0523741581275 0)
(10.192091096 -0.0748607187127 0)
(10.2242786918 -0.102682344282 -7.53771861922e-20)
(10.2583609963 -0.137151491084 0)
(10.2934794167 -0.179861752568 0)
(10.3280167649 -0.232587427541 -3.96715859176e-20)
(10.3592710375 -0.296985740029 -1.23340631376e-19)
(10.3831689951 -0.373961730553 0)
(10.3945642631 -0.462505183284 0)
(10.3866857349 -0.557484868264 4.18460501239e-20)
(10.0023548499 0.00405489519101 0)
(10.0112925582 0.00679463068271 0)
(10.0254593723 0.00524462941119 -4.61269637966e-21)
(10.0418755147 0.000307546123455 -2.82739566219e-21)
(10.0598950311 -0.00717207353016 0)
(10.0797516672 -0.0172396445705 3.89576868234e-21)
(10.1014996063 -0.0301361896224 8.02787536341e-21)
(10.1251208166 -0.0461826760516 1.2350559787e-20)
(10.1506078978 -0.0658836792115 0)
(10.1778728599 -0.0899478944359 0)
(10.2066386352 -0.119278688479 6.9761341426e-20)
(10.2363246683 -0.154959387048 -3.53896231573e-20)
(10.2658952545 -0.198197444933 0)
(10.2936753788 -0.250174445123 7.43777222928e-20)
(10.3171919106 -0.311741674046 3.85683778076e-20)
(10.3331287825 -0.382909236674 3.79868064372e-20)
(10.3377806526 -0.462066444334 -7.60466507366e-20)
(10.3266541171 -0.544592624076 3.64596369751e-20)
(10.0020889395 0.00153640263061 2.07115242641e-22)
(10.009871401 0.00187862667468 -2.16238101006e-22)
(10.0224059262 -0.00116828988571 4.40191129408e-21)
(10.0373712784 -0.00730311819452 2.68798127785e-21)
(10.0539995316 -0.0160097357514 0)
(10.072305636 -0.0273499225073 -7.39597677231e-21)
(10.0922559752 -0.0415750261852 0)
(10.1137376304 -0.0590167180661 0)
(10.1366082565 -0.080143907234 7.64140137596e-21)
(10.1606275364 -0.105572607498 7.81984294341e-21)
(10.1853623151 -0.136040363972 -4.80083300423e-20)
(10.2100933986 -0.172361805061 3.26222753914e-20)
(10.233715128 -0.215342115319 1.65267561632e-20)
(10.2546432518 -0.265616830197 1.6402933432e-20)
(10.2707854966 -0.323394764181 2.57034942933e-22)
(10.2796364508 -0.388107418658 3.35929571493e-20)
(10.278728752 -0.45796269472 6.70721915203e-20)
(10.2652181001 -0.529074096893 -1.00263042282e-19)
(10.0018145272 -0.00101488147441 0)
(10.0084825218 -0.00310709526874 0)
(10.0193619952 -0.00784884701358 1.64104442533e-21)
(10.0326663822 -0.0153476301262 -4.15510367568e-21)
(10.0475925313 -0.0253789231951 -8.52056645212e-22)
(10.0639807608 -0.0380343551483 1.69635385061e-21)
(10.0816999094 -0.0535667799045 0)
(10.1005452429 -0.0722971453749 6.95503113198e-21)
(10.1202569254 -0.0946337783139 -7.08164998788e-21)
(10.1404718171 -0.121070165244 -7.10440767286e-21)
(10.1606513244 -0.152148764038 1.4528272069e-20)
(10.1800181335 -0.18840125718 1.44683179319e-20)
(10.1975070694 -0.230255649399 1.45714143564e-20)
(10.2117460698 -0.277898529073 -1.50756519893e-20)
(10.2211053136 -0.331094148616 1.45656398542e-20)
(10.2238408917 -0.388985917341 -1.44866289556e-20)
(10.2184582705 -0.449887734763 -4.50608324672e-20)
(10.2032030032 -0.510707908223 1.4354350887e-20)
(10.0015360166 -0.00354554542682 -3.56623330325e-22)
(10.007126558 -0.00805626530063 3.74153693275e-22)
(10.0163339286 -0.0146294142122 -3.79166568286e-22)
(10.0277904474 -0.023610568261 2.27973186068e-21)
(10.0407227657 -0.0350011252768 -7.74375369901e-22)
(10.0548432467 -0.0489349521776 1.53990547916e-21)
(10.069926388 -0.0656547970937 0)
(10.0856872313 -0.0854472701663 -6.31606200997e-21)
(10.1017775515 -0.108637835037 0)
(10.1177553599 -0.135578195397 6.41733600179e-21)
(10.1330395691 -0.166607113792 -6.40532136791e-21)
(10.1468778897 -0.201990984114 -1.30557358445e-20)
(10.1583383578 -0.24184493158 -2.67965015597e-22)
(10.1663349653 -0.286035954793 0)
(10.1697064923 -0.334080190133 -2.64434927472e-20)
(10.1673481949 -0.385058917599 1.34346110261e-20)
(10.1584635773 -0.437547589253 1.29519362025e-20)
(10.1419556634 -0.489189712148 -3.7948649155e-20)
(10.0012556379 -0.00598762202909 6.45709703889e-22)
(10.0057949735 -0.0128383264104 -3.35972100948e-22)
(10.0133122678 -0.0212809154234 -2.37300558382e-21)
(10.0227611016 -0.0317732481737 3.58465497496e-24)
(10.0334364053 -0.0444699974966 3.43171262489e-21)
(10.0449728054 -0.0595419016103 -1.37749472615e-21)
(10.0570702357 -0.0772091157587 -2.78886804597e-21)
(10.0693868342 -0.0977039698651 5.53955508912e-21)
(10.0815255945 -0.121255256203 2.79854901978e-21)
(10.0930188737 -0.148070390833 5.65759950376e-21)
(10.1033075847 -0.17830098438 -1.69269196875e-20)
(10.1117342646 -0.211995948163 1.12729442359e-20)
(10.1175586453 -0.24904786726 -1.13473097045e-20)
(10.1199998984 -0.289139485137 -1.14702442434e-20)
(10.1183106294 -0.331702030777 1.13049850249e-20)
(10.1118695069 -0.375899756597 -1.10901337688e-20)
(10.1003360604 -0.420620178907 0)
(10.0829720461 -0.464121696251 2.18266290893e-20)
(10.0009754048 -0.00825030756352 -2.88600704039e-22)
(10.0044820365 -0.017270347053 3.0193795899e-22)
(10.0102942874 -0.0274915747763 1.51238599487e-21)
(10.0176126002 -0.0393993174934 1.20785083254e-21)
(10.0258201455 -0.0532298174372 -3.05002504633e-21)
(10.034521622 -0.0691719650189 6.08499953283e-22)
(10.0433757787 -0.0874125776434 1.22659522103e-21)
(10.0520178543 -0.108118981829 -6.16100039591e-21)
(10.0600474783 -0.13142301274 0)
(10.0670245591 -0.157404571556 0)
(10.0724660523 -0.186067511195 4.26009415613e-23)
(10.0758537045 -0.217310884668 -6.33418423156e-23)
(10.0766576502 -0.250901625618 1.00017292957e-20)
(10.0743752067 -0.286455096348 -1.4809555641e-20)
(10.0685841396 -0.323430490251 0)
(10.0589940392 -0.361145703341 -4.55923319381e-21)
(10.0455341969 -0.39878407232 1.90997079659e-20)
(10.0276396984 -0.435085522053 -2.80815460004e-20)
(10.0006985213 -0.0102178676968 0)
(10.0031938787 -0.0211174879663 2.64574447817e-22)
(10.0073071045 -0.0328762826344 0)
(10.0124334312 -0.045950277579 -1.60054398622e-21)
(10.0180532316 -0.0605974912156 -5.2815111362e-22)
(10.0237821445 -0.0770019859828 0)
(10.0292771086 -0.0953109473206 -1.06801218043e-21)
(10.0341892747 -0.115628143336 5.31786504887e-21)
(10.0381578215 -0.13800318258 -1.45356290086e-23)
(10.0408129363 -0.162421313987 0)
(10.0417813915 -0.188791406498 2.10128625593e-21)
(10.0406988578 -0.216934261556 4.22792912135e-21)
(10.0372303773 -0.246575374422 5.67871607986e-23)
(10.031096791 -0.277345881199 0)
(10.0221053936 -0.308794248818 -4.09106046911e-21)
(10.0101705715 -0.340407769599 4.18074263853e-21)
(9.99536263597 -0.371616705625 -4.00112554519e-21)
(9.97718359275 -0.401522781077 7.85495457633e-21)
(10.0004283281 -0.0117446837433 -1.10346315298e-22)
(10.0019512723 -0.0240793612509 -2.89864078558e-22)
(10.00442092 -0.036956785432 3.45239029551e-22)
(10.0073914245 -0.0507666279833 0)
(10.010441986 -0.0657471609015 9.27524256425e-22)
(10.0132295537 -0.0820603704736 -4.61002103885e-22)
(10.0154455902 -0.0998153662053 1.37994512688e-21)
(10.0167921843 -0.119066274313 -2.76853245362e-21)
(10.0169806388 -0.139807917473 -3.66205370123e-21)
(10.0157366723 -0.161973047837 1.80563453026e-21)
(10.0128077227 -0.18543035148 -4.10181997391e-23)
(10.007972934 -0.209984478651 0)
(10.001055963 -0.235380074839 -3.57315944581e-21)
(9.99193843566 -0.261311155104 1.77029353131e-21)
(9.98057385153 -0.287435928087 7.10026472033e-21)
(9.9669902698 -0.313394414393 -3.46187468447e-21)
(9.9513205991 -0.338806025685 8.63340899549e-21)
(9.93308252111 -0.36303816172 0)
(10.0001992244 -0.0126611666597 1.0858245179e-22)
(10.0009046713 -0.0258046022354 0)
(10.0019885161 -0.0391960871758 -9.92357352156e-25)
(10.0031238718 -0.0531438257416 -2.24959609966e-22)
(10.0039740831 -0.0678505227818 2.23418097463e-22)
(10.0042487901 -0.0834557843726 8.98653720988e-22)
(10.0036935514 -0.100044461081 -8.95834268591e-22)
(10.0020779604 -0.117645158107 0)
(9.99919435975 -0.136231178555 1.80548593529e-21)
(9.99486180969 -0.155723232238 -2.67914074742e-21)
(9.98893143651 -0.175993205496 -1.78168601832e-21)
(9.9812920691 -0.196869729275 0)
(9.97187609043 -0.218146289689 0)
(9.96066420416 -0.239591832618 -5.16370889394e-21)
(9.94769015479 -0.260963296306 5.08873616629e-21)
(9.933035452 -0.282017484835 1.6583408203e-21)
(9.91685380194 -0.302504399019 -2.16703627199e-23)
(9.8986613421 -0.321973902909 -4.81981183745e-21)
(10.0000460579 -0.0129977837423 -5.97328718854e-23)
(10.0001980647 -0.0263729845481 0)
(10.0003350642 -0.0397417883542 0)
(10.0001986159 -0.0533280713346 4.95852716417e-22)
(9.99950097671 -0.0673054841666 -7.44676775474e-22)
(9.99799366594 -0.0818071266839 -4.96552522084e-24)
(9.99547487488 -0.0969132675627 7.41077178896e-22)
(9.99177667653 -0.112649627933 -4.8936475032e-22)
(9.9867597576 -0.12899294814 4.9681387241e-22)
(9.98031574106 -0.145876528964 9.70915577614e-22)
(9.97237012564 -0.163195995771 0)
(9.96288433431 -0.180816608322 0)
(9.95185691359 -0.198581943435 0)
(9.93932390068 -0.216323401664 -2.79446249925e-21)
(9.92535932573 -0.233869819702 -1.22945400746e-23)
(9.91006721608 -0.251055305577 -4.57646222787e-21)
(9.89360600909 -0.267711117185 5.43481607916e-21)
(9.87548434113 -0.283504210843 1.75293279635e-21)
(9.99995548683 -0.0129897386324 -3.24141460573e-23)
(9.99978633283 -0.0262783337693 3.40919937808e-23)
(9.99937859687 -0.0393384778597 -2.02482930371e-22)
(9.99848880504 -0.0523028666611 -2.71447995508e-22)
(9.99683142556 -0.0653386796036 0)
(9.99418329647 -0.0785960470172 -5.4111196606e-22)
(9.99038984343 -0.0921654447527 0)
(9.98533537525 -0.106082309147 0)
(9.97893305855 -0.120338879319 -5.31060778641e-22)
(9.97112744778 -0.134890072549 5.30116494365e-22)
(9.96189579655 -0.149659317623 1.04746746681e-21)
(9.9512468267 -0.164546450452 -2.08381369607e-21)
(9.93921948254 -0.17943622732 1.03617945065e-21)
(9.92588097732 -0.194206495298 1.0300382189e-21)
(9.91132602788 -0.208735610081 0)
(9.89566778297 -0.222907724636 -9.80377746712e-22)
(9.87906469907 -0.236604670666 1.98093605297e-21)
(9.86101695606 -0.24957040957 1.90302414392e-21)
(9.99990149351 -0.0128264929201 -5.48475361259e-26)
(9.99958011942 -0.0259254759012 1.2877181334e-22)
(9.99895012343 -0.0385712073274 1.10690739742e-22)
(9.99771374077 -0.0507900181996 0)
(9.99553101727 -0.0627915107349 0)
(9.99219763507 -0.0747714046187 2.92178537037e-22)
(9.98760848191 -0.0868367034662 0)
(9.98169183735 -0.0990378990275 -2.90313308739e-22)
(9.97440079873 -0.111388629422 0)
(9.96572026591 -0.123868068173 0)
(9.95566555894 -0.136426090212 5.70591590414e-22)
(9.94427830656 -0.148992050789 0)
(9.93162375593 -0.161483270401 0)
(9.91778844608 -0.173812189187 0)
(9.90287903483 -0.18589243996 0)
(9.88701352505 -0.197642752481 0)
(9.87035154257 -0.208979821753 1.07194247631e-21)
(9.85238880134 -0.21970333983 -1.05343695345e-21)
(9.99985011855 -0.012596468876 -1.90416421617e-23)
(9.999491393 -0.0255618854453 -3.95231874677e-23)
(9.998922029 -0.0377929774941 3.9688916777e-23)
(9.99766987254 -0.049195438797 -3.97526750835e-23)
(9.99527351584 -0.0601154940205 -7.94457828628e-23)
(9.99156762499 -0.0708220120455 -3.97820455419e-22)
(9.98650908167 -0.0814354061617 0)
(9.9800612192 -0.0920236438407 3.17582700234e-22)
(9.97220723231 -0.102624486852 -4.71729912267e-22)
(9.96296512011 -0.113240184181 1.57334286785e-22)
(9.95238062639 -0.123843531357 -9.37483834424e-22)
(9.94051980151 -0.134388452072 6.17515158179e-22)
(9.92746622988 -0.144818246453 -6.14938611959e-22)
(9.91331890063 -0.15507183361 0)
(9.89819108466 -0.165088859814 -3.00561057833e-22)
(9.88220173352 -0.174812844069 0)
(9.86551006104 -0.184185077538 0)
(9.84760109948 -0.193044667365 -1.14249130961e-21)
(9.99974557869 -0.0123159371705 1.01599939997e-23)
(9.99941239947 -0.0253647237942 4.26163435108e-23)
(9.9991925635 -0.0372492353982 0)
(9.99821134994 -0.0478129806383 0)
(9.99582000982 -0.0576794002642 -4.28182482669e-23)
(9.99195447492 -0.067183636581 3.00642638093e-22)
(9.98665122098 -0.0764490612876 -3.42801554183e-22)
(9.97989781851 -0.0855716466432 8.58628094228e-23)
(9.97170190508 -0.0946169094898 1.75544579828e-24)
(9.96211121221 -0.103605088526 1.70943783851e-22)
(9.9511961801 -0.112524548944 3.4046574665e-22)
(9.93904085353 -0.121346213637 -6.75477113228e-22)
(9.92574174758 -0.130031607862 1.90942956678e-24)
(9.91140626422 -0.138538368303 3.32118274063e-22)
(9.89615201325 -0.146825056897 2.74057479781e-24)
(9.88009883913 -0.154854637372 -3.22909729271e-22)
(9.86341157042 -0.1625917528 3.2555467156e-22)
(9.84557326647 -0.169915028936 6.34035540881e-22)
(9.99949924271 -0.011936677204 -1.08691138666e-23)
(9.99919139079 -0.0254408202991 -1.13139691098e-23)
(9.99962075867 -0.0368627706822 2.27050479029e-23)
(9.99911339736 -0.0464124996602 5.71440794636e-23)
(9.99683800498 -0.0551964111482 0)
(9.99293782761 -0.0635033469978 9.22260935912e-23)
(9.98752256834 -0.0714202871436 2.7813307455e-22)
(9.98058770413 -0.0790893411049 9.25901061492e-23)
(9.97216933153 -0.0866176498898 1.85786828516e-22)
(9.962347593 -0.0940491245743 -1.85410077957e-22)
(9.95121404975 -0.10138991906 1.85124647402e-22)
(9.93886541171 -0.108627029362 1.86520116724e-22)
(9.9254061871 -0.115736283766 5.54307618461e-22)
(9.91094762537 -0.122687932276 -5.50098752789e-22)
(9.89560644999 -0.129451930938 1.14448513468e-24)
(9.87949567389 -0.136002204074 3.63099479486e-22)
(9.86277359523 -0.142317563914 -1.79422048168e-22)
(9.84487755794 -0.148299169306 3.5129461985e-22)
(9.99904799151 -0.0114240619704 0)
(9.99875147044 -0.0267055848829 0)
(10.0002113503 -0.0376669502746 -8.87831650854e-26)
(10.0002243402 -0.0460787371229 -4.90732797463e-23)
(9.99803913567 -0.0539665728954 0)
(9.99417624658 -0.0614297117406 -1.00200835407e-22)
(9.98874832438 -0.0684268818537 -1.51466506202e-22)
(9.98171416711 -0.0750886534241 -5.07252048546e-23)
(9.97313624051 -0.0815192396404 5.09595672732e-23)
(9.96312766806 -0.0877643974843 2.05795175702e-22)
(9.95179903238 -0.0938431160513 -1.03738486125e-22)
(9.93925863534 -0.0997610677104 -7.99204595526e-25)
(9.9256193081 -0.105513482969 -2.0678348725e-22)
(9.91099740261 -0.111088516233 1.02674025572e-22)
(9.89551121763 -0.116471988095 1.02760634744e-22)
(9.87927220811 -0.121653322664 1.02427271337e-22)
(9.86245000373 -0.126637027638 4.07731978175e-22)
(9.84447241451 -0.131378663552 -6.04594294196e-22)
(9.99763014829 -0.00820038884862 1.50363833322e-24)
(9.99706265108 -0.0268543792986 -1.58845980516e-24)
(10.0002529665 -0.0371060899411 -1.95843112565e-23)
(10.0007305707 -0.0433297634358 2.00540970908e-23)
(9.99838655674 -0.0489009038121 0)
(9.99441899332 -0.054147462011 0)
(9.98890313852 -0.0592075403669 8.51217999744e-23)
(9.98173018512 -0.0642532096616 -2.88396598503e-23)
(9.97297232763 -0.069327242263 -5.84104050751e-23)
(9.96275514219 -0.0744020053394 0)
(9.95119213526 -0.0794399770112 0)
(9.93839443281 -0.0844061697796 0)
(9.92447941085 -0.0892669887766 1.79666694865e-22)
(9.90956735825 -0.0939902529066 -6.0315787996e-23)
(9.89377671527 -0.0985465034875 2.39820517109e-22)
(9.87720803783 -0.102911998023 -2.41026819806e-22)
(9.86000602316 -0.107083152817 0)
(9.8414043625 -0.11102202199 -1.17783714044e-22)
(9.9940355664 -0.00545827096784 -8.04496060622e-25)
(9.99223377862 -0.0304241165866 8.77665872546e-25)
(9.99873802697 -0.0467235923405 0)
(10.0005662639 -0.0585701053689 -4.62977193037e-23)
(9.9983335253 -0.0671495971311 0)
(9.99402394205 -0.0728950958504 0)
(9.98783422623 -0.0769066183691 -1.6892932676e-23)
(9.97977306712 -0.0800286872286 5.16569028902e-23)
(9.97002058384 -0.082693538062 -7.0066636129e-23)
(9.95875078692 -0.0851217545458 0)
(9.9460934813 -0.0874379259757 0)
(9.93216780158 -0.0897083624354 0)
(9.9170973137 -0.0919595830435 7.23015028239e-23)
(9.90100789459 -0.094191984556 -7.25144376048e-23)
(9.88402339933 -0.0963884284452 -7.28230990263e-23)
(9.86624949976 -0.0985199172225 7.25829757336e-23)
(9.84785521186 -0.100568719924 0)
(9.82803093668 -0.102494719317 0)
(9.98450335557 0.00425331826147 0)
(9.97840688682 0.0215638235145 0)
(9.98576815457 0.0314123506125 0)
(9.98861628488 0.0252065221286 9.49997429278e-24)
(9.98745833771 0.0134773383753 4.95144470666e-24)
(9.98340992475 0.00149409340589 1.5482427616e-23)
(9.97633019362 -0.0096910269032 -1.04327570552e-23)
(9.96641240464 -0.0198789010502 -2.14426500526e-23)
(9.95406239362 -0.0289913842315 -1.07947807991e-23)
(9.93960752167 -0.0370577541872 -6.53493720424e-23)
(9.92328945454 -0.0441761033161 2.19758157185e-23)
(9.90531859047 -0.0504618195913 2.2174743309e-23)
(9.88589461033 -0.0560218955051 -6.62791092015e-23)
(9.86520783933 -0.0609458834627 8.87186946484e-23)
(9.84343878288 -0.0653007026763 -8.82138477727e-23)
(9.82073820396 -0.0691224508118 -8.84395697151e-23)
(9.79730524177 -0.0724183055586 -2.02440192458e-25)
(9.77180535659 -0.0750543363342 -4.36455855364e-23)
(10.0130253897 -0.318260266662 -5.4987501473e-25)
(10.0067573299 -0.328184723296 7.23146577214e-25)
(9.99059190654 -0.274334272057 -2.21418909227e-24)
(9.96759242476 -0.228665907657 1.23198100333e-23)
(9.94444857571 -0.192940542855 -1.59461088102e-24)
(9.92011180701 -0.164650622897 -2.23721093873e-23)
(9.8929932722 -0.142657062131 -3.26346107697e-24)
(9.86287596695 -0.125764060987 0)
(9.83004972256 -0.112797298457 -1.31507063801e-23)
(9.79482358376 -0.102817900902 5.28007213172e-23)
(9.75749040578 -0.0951214079527 1.32086936017e-23)
(9.7183535042 -0.0891772878371 -9.28319722283e-23)
(9.67772185897 -0.0845807773658 -1.32050640867e-23)
(9.63589833295 -0.0810187274244 -3.96367274699e-23)
(9.59317765475 -0.0782413637188 7.92595256884e-23)
(9.54983578142 -0.0760298699327 1.05255729416e-22)
(9.50630088291 -0.0741533253236 -1.05030983631e-22)
(9.46088844121 -0.0720285614096 9.15795354613e-23)
(9.95343194893 0.912949204795 7.39282030056e-25)
(9.95058827679 0.560529590038 4.40236869341e-25)
(9.85785701555 0.374604552369 3.32918903757e-24)
(9.73764562174 0.257353663137 0)
(9.61498993861 0.178931991626 0)
(9.49362953429 0.124974517071 0)
(9.37390181916 0.0867969072078 0)
(9.25668111046 0.0591749246594 0)
(9.14269522646 0.0388720638905 1.63567778262e-23)
(9.03228798095 0.0237708226859 0)
(8.92557903726 0.0124302632667 4.1244250026e-24)
(8.82259229711 0.00384667760843 2.08680488599e-23)
(8.7233033972 -0.00269103533868 8.39144813749e-24)
(8.62765956006 -0.00769329503669 8.34454575955e-24)
(8.53560078946 -0.0115283751759 -3.37087207622e-23)
(8.44706598592 -0.0144568532311 -4.21146650661e-23)
(8.36232058878 -0.0166187134501 0)
(8.27837560033 -0.017941219346 -1.68007483012e-23)
(2.20534868315 -0.292830014546 -3.29892499986e-16)
(2.03423059336 -0.19011084789 0)
(1.98077644541 0.0402940488111 -4.22771181533e-18)
(2.07157567034 0.0397258362088 0)
(2.14014014931 0.0286850265992 0)
(2.1700449657 0.0186218182689 -3.05361353743e-18)
(2.18810602496 0.0120026836393 1.51024972856e-18)
(2.20481100577 0.00748734598992 0)
(2.22032298119 0.00424277018476 0)
(2.23407663121 0.00192922046775 2.41798509402e-19)
(2.24640850709 0.000331420127156 -2.40093732143e-19)
(2.25776231906 -0.000736226148004 -1.18701650999e-19)
(2.26836346631 -0.00142379799078 1.18010496526e-19)
(2.27830171077 -0.00184224789344 0)
(2.28762187568 -0.00207096264542 0)
(2.29634895656 -0.00216593081807 -4.91077672007e-19)
(2.30448931423 -0.00216579465163 1.43994547048e-20)
(2.31202964682 -0.00209546568617 1.43055073399e-20)
(2.31893442497 -0.00196885299456 -4.48271354074e-19)
(2.32513638709 -0.00179045485228 4.46484775841e-19)
(2.33052985292 -0.00155723770019 0)
(2.33497437454 -0.00126260000721 -1.75948198195e-21)
(2.33823078878 -0.000875380249737 9.00628127271e-19)
(2.33978631029 -0.000318831424804 8.98142565708e-19)
(2.33877833414 0.000546658538397 -1.31381160628e-21)
(2.33369779644 0.00199178332322 6.57722358752e-22)
(2.32104271615 0.00475652188409 9.01574326753e-19)
(2.29650851185 0.0107630205042 0)
(2.20734833798 0.0311096506131 1.1384224802e-22)
(2.49598244596 -0.370326818848 1.42976293552e-16)
(2.41498306561 -0.364727340539 4.25585806083e-17)
(2.35145139735 -0.345705115582 -7.50609472857e-17)
(2.34320453382 -0.312676601245 1.47347688719e-16)
(2.3124850572 -0.273910443679 -3.95445115232e-19)
(2.31561419165 -0.130276452096 3.42466774804e-18)
(2.39936263054 -0.069357611831 0)
(2.4741743897 -0.0493270966108 3.14469420697e-18)
(2.5192426556 -0.0380797230292 -2.30131270343e-18)
(2.55038989046 -0.0290203610921 3.71678212805e-19)
(2.5763067806 -0.0223383464648 -7.25896609916e-19)
(2.59818095485 -0.0177567138792 0)
(2.61621675855 -0.0145864871852 0)
(2.63112224686 -0.0123098558876 -1.71290679301e-19)
(2.64362313218 -0.0106237551007 8.47696065585e-20)
(2.6542305779 -0.00934039111605 -5.83316978854e-19)
(2.66330311774 -0.00833071278193 6.58892483432e-19)
(2.67111726879 -0.0075043956677 4.07136555324e-20)
(2.67789006368 -0.00679809306801 3.02671408391e-19)
(2.6837845668 -0.00616616298542 -2.00238305923e-20)
(2.68891282949 -0.0055723122058 9.9190873202e-21)
(2.69334229224 -0.00498344872485 3.10440009551e-19)
(2.69708483331 -0.00436606386546 -3.18209129459e-19)
(2.70013341622 -0.00367970757293 0)
(2.70229841583 -0.002865551387 0)
(2.70326491871 -0.00181303975045 -6.15450039863e-19)
(2.70260563518 -0.000327691263525 -1.8379446152e-18)
(2.69955988868 0.00193041491763 5.95876373526e-22)
(2.69285273451 0.00562621273851 0)
(2.67967214251 0.0123649782208 -1.82329557896e-18)
(2.65832910066 0.026371438733 7.44534871208e-23)
(2.60229695324 0.0612452882919 -1.21415856051e-18)
(2.78954903035 -0.422076811401 0)
(2.71295957659 -0.422774185974 0)
(2.65119848366 -0.405908027711 7.08521130934e-17)
(2.60340764237 -0.404255787931 -5.88582171964e-17)
(2.61042349446 -0.384736275096 -6.23160464762e-17)
(2.62830203588 -0.359473638648 5.40229033461e-18)
(2.62322638617 -0.332818505498 -5.24445062859e-18)
(2.61719998497 -0.290306507444 0)
(2.60613844914 -0.236478000314 -7.58439776865e-18)
(2.61488937217 -0.136260496856 5.1364139409e-18)
(2.6666592932 -0.077386985588 0)
(2.72009352197 -0.0545457298868 6.13378038151e-19)
(2.75646209402 -0.0427797054868 -5.9537637032e-19)
(2.78220172875 -0.0340413661139 0)
(2.80309056621 -0.0275936771814 5.6785252676e-19)
(2.82032707028 -0.0230139431213 1.10906913869e-18)
(2.83417318846 -0.0196365514834 5.42275366867e-19)